file 383726 1707950634                                          
version 3
run Tictoc2-0-20240214-19:43:50-5782
attr configname Tictoc2
attr datetime 20240214-19:43:50
attr datetimef 20240214-194350
attr experiment Tictoc2
attr inifile omnetpp.ini
attr iterationvars ""
attr iterationvarsd ""
attr iterationvarsf ""
attr measurement ""
attr network Tictoc2
attr processid 5782
attr repetition 0
attr replication #0
attr resultdir results
attr runnumber 0
attr seedset 0
config network Tictoc2

vector 0 Tictoc2.peer[0] HopCount ETV
vector 1 Tictoc2.peer[1] HopCount ETV
vector 2 Tictoc2.peer[2] HopCount ETV
vector 3 Tictoc2.peer[3] HopCount ETV
vector 4 Tictoc2.peer[4] HopCount ETV
vector 5 Tictoc2.peer[5] HopCount ETV
vector 6 Tictoc2.peer[6] HopCount ETV
vector 7 Tictoc2.peer[7] HopCount ETV
vector 8 Tictoc2.peer[8] HopCount ETV
vector 9 Tictoc2.peer[9] HopCount ETV
vector 10 Tictoc2.peer[10] HopCount ETV
vector 11 Tictoc2.peer[11] HopCount ETV
vector 12 Tictoc2.peer[12] HopCount ETV
vector 13 Tictoc2.peer[13] HopCount ETV
vector 14 Tictoc2.peer[14] HopCount ETV
vector 15 Tictoc2.peer[15] HopCount ETV
vector 16 Tictoc2.peer[16] HopCount ETV
vector 17 Tictoc2.peer[17] HopCount ETV
vector 18 Tictoc2.peer[18] HopCount ETV
vector 19 Tictoc2.peer[19] HopCount ETV
vector 20 Tictoc2.peer[20] HopCount ETV
vector 21 Tictoc2.peer[21] HopCount ETV
vector 22 Tictoc2.peer[22] HopCount ETV
vector 23 Tictoc2.peer[23] HopCount ETV
vector 24 Tictoc2.peer[24] HopCount ETV
vector 25 Tictoc2.peer[25] HopCount ETV
vector 26 Tictoc2.peer[26] HopCount ETV
vector 27 Tictoc2.peer[27] HopCount ETV
vector 28 Tictoc2.peer[28] HopCount ETV
vector 29 Tictoc2.peer[29] HopCount ETV
vector 30 Tictoc2.peer[30] HopCount ETV
vector 31 Tictoc2.peer[31] HopCount ETV
vector 32 Tictoc2.peer[32] HopCount ETV
vector 33 Tictoc2.peer[33] HopCount ETV
vector 34 Tictoc2.peer[34] HopCount ETV
vector 35 Tictoc2.peer[35] HopCount ETV
vector 36 Tictoc2.peer[36] HopCount ETV
vector 37 Tictoc2.peer[37] HopCount ETV
vector 38 Tictoc2.peer[38] HopCount ETV
vector 39 Tictoc2.peer[39] HopCount ETV
vector 40 Tictoc2.peer[40] HopCount ETV
vector 41 Tictoc2.peer[41] HopCount ETV
vector 42 Tictoc2.peer[42] HopCount ETV
vector 43 Tictoc2.peer[43] HopCount ETV
vector 44 Tictoc2.peer[44] HopCount ETV
vector 45 Tictoc2.peer[45] HopCount ETV
vector 46 Tictoc2.peer[46] HopCount ETV
vector 47 Tictoc2.peer[47] HopCount ETV
vector 48 Tictoc2.peer[48] HopCount ETV
vector 49 Tictoc2.peer[49] HopCount ETV
vector 50 Tictoc2.peer[50] HopCount ETV
vector 51 Tictoc2.peer[51] HopCount ETV
vector 52 Tictoc2.peer[52] HopCount ETV
vector 53 Tictoc2.peer[53] HopCount ETV
vector 54 Tictoc2.peer[54] HopCount ETV
vector 55 Tictoc2.peer[55] HopCount ETV
vector 56 Tictoc2.peer[56] HopCount ETV
vector 57 Tictoc2.peer[57] HopCount ETV
vector 58 Tictoc2.peer[58] HopCount ETV
vector 59 Tictoc2.peer[59] HopCount ETV
vector 60 Tictoc2.peer[60] HopCount ETV
vector 61 Tictoc2.peer[61] HopCount ETV
vector 62 Tictoc2.peer[62] HopCount ETV
vector 63 Tictoc2.peer[63] HopCount ETV
vector 64 Tictoc2.peer[64] HopCount ETV
vector 65 Tictoc2.peer[65] HopCount ETV
vector 66 Tictoc2.peer[66] HopCount ETV
vector 67 Tictoc2.peer[67] HopCount ETV
vector 68 Tictoc2.peer[68] HopCount ETV
vector 69 Tictoc2.peer[69] HopCount ETV
vector 70 Tictoc2.peer[70] HopCount ETV
vector 71 Tictoc2.peer[71] HopCount ETV
vector 72 Tictoc2.peer[72] HopCount ETV
vector 73 Tictoc2.peer[73] HopCount ETV
vector 74 Tictoc2.peer[74] HopCount ETV
vector 75 Tictoc2.peer[75] HopCount ETV
vector 76 Tictoc2.peer[76] HopCount ETV
vector 77 Tictoc2.peer[77] HopCount ETV
vector 78 Tictoc2.peer[78] HopCount ETV
vector 79 Tictoc2.peer[79] HopCount ETV
vector 80 Tictoc2.peer[80] HopCount ETV
vector 81 Tictoc2.peer[81] HopCount ETV
vector 82 Tictoc2.peer[82] HopCount ETV
vector 83 Tictoc2.peer[83] HopCount ETV
vector 84 Tictoc2.peer[84] HopCount ETV
vector 85 Tictoc2.peer[85] HopCount ETV
vector 86 Tictoc2.peer[86] HopCount ETV
vector 87 Tictoc2.peer[87] HopCount ETV
vector 88 Tictoc2.peer[88] HopCount ETV
vector 89 Tictoc2.peer[89] HopCount ETV
vector 90 Tictoc2.peer[90] HopCount ETV
vector 91 Tictoc2.peer[91] HopCount ETV
vector 92 Tictoc2.peer[92] HopCount ETV
vector 93 Tictoc2.peer[93] HopCount ETV
vector 94 Tictoc2.peer[94] HopCount ETV
vector 95 Tictoc2.peer[95] HopCount ETV
vector 96 Tictoc2.peer[96] HopCount ETV
vector 97 Tictoc2.peer[97] HopCount ETV
vector 98 Tictoc2.peer[98] HopCount ETV
vector 99 Tictoc2.peer[99] HopCount ETV
vector 100 Tictoc2.peer[100] HopCount ETV
vector 101 Tictoc2.peer[101] HopCount ETV
vector 102 Tictoc2.peer[102] HopCount ETV
vector 103 Tictoc2.peer[103] HopCount ETV
vector 104 Tictoc2.peer[104] HopCount ETV
vector 105 Tictoc2.peer[105] HopCount ETV
vector 106 Tictoc2.peer[106] HopCount ETV
vector 107 Tictoc2.peer[107] HopCount ETV
vector 108 Tictoc2.peer[108] HopCount ETV
vector 109 Tictoc2.peer[109] HopCount ETV
vector 110 Tictoc2.peer[110] HopCount ETV
vector 111 Tictoc2.peer[111] HopCount ETV
vector 112 Tictoc2.peer[112] HopCount ETV
vector 113 Tictoc2.peer[113] HopCount ETV
vector 114 Tictoc2.peer[114] HopCount ETV
vector 115 Tictoc2.peer[115] HopCount ETV
vector 116 Tictoc2.peer[116] HopCount ETV
vector 117 Tictoc2.peer[117] HopCount ETV
vector 118 Tictoc2.peer[118] HopCount ETV
vector 119 Tictoc2.peer[119] HopCount ETV
vector 120 Tictoc2.peer[120] HopCount ETV
vector 121 Tictoc2.peer[121] HopCount ETV
vector 122 Tictoc2.peer[122] HopCount ETV
vector 123 Tictoc2.peer[123] HopCount ETV
vector 124 Tictoc2.peer[124] HopCount ETV
vector 125 Tictoc2.peer[125] HopCount ETV
vector 126 Tictoc2.peer[126] HopCount ETV
vector 127 Tictoc2.peer[127] HopCount ETV
vector 128 Tictoc2.peer[128] HopCount ETV
vector 129 Tictoc2.peer[129] HopCount ETV
vector 130 Tictoc2.peer[130] HopCount ETV
vector 131 Tictoc2.peer[131] HopCount ETV
vector 132 Tictoc2.peer[132] HopCount ETV
vector 133 Tictoc2.peer[133] HopCount ETV
vector 134 Tictoc2.peer[134] HopCount ETV
vector 135 Tictoc2.peer[135] HopCount ETV
vector 136 Tictoc2.peer[136] HopCount ETV
vector 137 Tictoc2.peer[137] HopCount ETV
vector 138 Tictoc2.peer[138] HopCount ETV
vector 139 Tictoc2.peer[139] HopCount ETV
vector 140 Tictoc2.peer[140] HopCount ETV
vector 141 Tictoc2.peer[141] HopCount ETV
vector 142 Tictoc2.peer[142] HopCount ETV
vector 143 Tictoc2.peer[143] HopCount ETV
vector 144 Tictoc2.peer[144] HopCount ETV
vector 145 Tictoc2.peer[145] HopCount ETV
vector 146 Tictoc2.peer[146] HopCount ETV
vector 147 Tictoc2.peer[147] HopCount ETV
vector 148 Tictoc2.peer[148] HopCount ETV
vector 149 Tictoc2.peer[149] HopCount ETV
vector 150 Tictoc2.peer[150] HopCount ETV
vector 151 Tictoc2.peer[151] HopCount ETV
vector 152 Tictoc2.peer[152] HopCount ETV
vector 153 Tictoc2.peer[153] HopCount ETV
vector 154 Tictoc2.peer[154] HopCount ETV
vector 155 Tictoc2.peer[155] HopCount ETV
vector 156 Tictoc2.peer[156] HopCount ETV
vector 157 Tictoc2.peer[157] HopCount ETV
vector 158 Tictoc2.peer[158] HopCount ETV
vector 159 Tictoc2.peer[159] HopCount ETV
vector 160 Tictoc2.peer[160] HopCount ETV
vector 161 Tictoc2.peer[161] HopCount ETV
vector 162 Tictoc2.peer[162] HopCount ETV
vector 163 Tictoc2.peer[163] HopCount ETV
vector 164 Tictoc2.peer[164] HopCount ETV
vector 165 Tictoc2.peer[165] HopCount ETV
vector 166 Tictoc2.peer[166] HopCount ETV
vector 167 Tictoc2.peer[167] HopCount ETV
vector 168 Tictoc2.peer[168] HopCount ETV
vector 169 Tictoc2.peer[169] HopCount ETV
vector 170 Tictoc2.peer[170] HopCount ETV
vector 171 Tictoc2.peer[171] HopCount ETV
vector 172 Tictoc2.peer[172] HopCount ETV
vector 173 Tictoc2.peer[173] HopCount ETV
vector 174 Tictoc2.peer[174] HopCount ETV
vector 175 Tictoc2.peer[175] HopCount ETV
vector 176 Tictoc2.peer[176] HopCount ETV
vector 177 Tictoc2.peer[177] HopCount ETV
vector 178 Tictoc2.peer[178] HopCount ETV
vector 179 Tictoc2.peer[179] HopCount ETV
vector 180 Tictoc2.peer[180] HopCount ETV
vector 181 Tictoc2.peer[181] HopCount ETV
vector 182 Tictoc2.peer[182] HopCount ETV
vector 183 Tictoc2.peer[183] HopCount ETV
vector 184 Tictoc2.peer[184] HopCount ETV
vector 185 Tictoc2.peer[185] HopCount ETV
vector 186 Tictoc2.peer[186] HopCount ETV
vector 187 Tictoc2.peer[187] HopCount ETV
vector 188 Tictoc2.peer[188] HopCount ETV
vector 189 Tictoc2.peer[189] HopCount ETV
vector 190 Tictoc2.peer[190] HopCount ETV
vector 191 Tictoc2.peer[191] HopCount ETV
vector 192 Tictoc2.peer[192] HopCount ETV
vector 193 Tictoc2.peer[193] HopCount ETV
vector 194 Tictoc2.peer[194] HopCount ETV
vector 195 Tictoc2.peer[195] HopCount ETV
vector 196 Tictoc2.peer[196] HopCount ETV
vector 197 Tictoc2.peer[197] HopCount ETV
vector 198 Tictoc2.peer[198] HopCount ETV
vector 199 Tictoc2.peer[199] HopCount ETV
vector 200 Tictoc2.peer[200] HopCount ETV
vector 201 Tictoc2.peer[201] HopCount ETV
vector 202 Tictoc2.peer[202] HopCount ETV
vector 203 Tictoc2.peer[203] HopCount ETV
vector 204 Tictoc2.peer[204] HopCount ETV
vector 205 Tictoc2.peer[205] HopCount ETV
vector 206 Tictoc2.peer[206] HopCount ETV
vector 207 Tictoc2.peer[207] HopCount ETV
vector 208 Tictoc2.peer[208] HopCount ETV
vector 209 Tictoc2.peer[209] HopCount ETV
vector 210 Tictoc2.peer[210] HopCount ETV
vector 211 Tictoc2.peer[211] HopCount ETV
vector 212 Tictoc2.peer[212] HopCount ETV
vector 213 Tictoc2.peer[213] HopCount ETV
vector 214 Tictoc2.peer[214] HopCount ETV
vector 215 Tictoc2.peer[215] HopCount ETV
vector 216 Tictoc2.peer[216] HopCount ETV
vector 217 Tictoc2.peer[217] HopCount ETV
vector 218 Tictoc2.peer[218] HopCount ETV
vector 219 Tictoc2.peer[219] HopCount ETV
vector 220 Tictoc2.peer[220] HopCount ETV
vector 221 Tictoc2.peer[221] HopCount ETV
vector 222 Tictoc2.peer[222] HopCount ETV
vector 223 Tictoc2.peer[223] HopCount ETV
vector 224 Tictoc2.peer[224] HopCount ETV
vector 225 Tictoc2.peer[225] HopCount ETV
vector 226 Tictoc2.peer[226] HopCount ETV
vector 227 Tictoc2.peer[227] HopCount ETV
vector 228 Tictoc2.peer[228] HopCount ETV
vector 229 Tictoc2.peer[229] HopCount ETV
vector 230 Tictoc2.peer[230] HopCount ETV
vector 231 Tictoc2.peer[231] HopCount ETV
vector 232 Tictoc2.peer[232] HopCount ETV
vector 233 Tictoc2.peer[233] HopCount ETV
vector 234 Tictoc2.peer[234] HopCount ETV
vector 235 Tictoc2.peer[235] HopCount ETV
vector 236 Tictoc2.peer[236] HopCount ETV
vector 237 Tictoc2.peer[237] HopCount ETV
vector 238 Tictoc2.peer[238] HopCount ETV
vector 239 Tictoc2.peer[239] HopCount ETV
vector 240 Tictoc2.peer[240] HopCount ETV
vector 241 Tictoc2.peer[241] HopCount ETV
vector 242 Tictoc2.peer[242] HopCount ETV
vector 243 Tictoc2.peer[243] HopCount ETV
vector 244 Tictoc2.peer[244] HopCount ETV
vector 245 Tictoc2.peer[245] HopCount ETV
vector 246 Tictoc2.peer[246] HopCount ETV
vector 247 Tictoc2.peer[247] HopCount ETV
vector 248 Tictoc2.peer[248] HopCount ETV
vector 249 Tictoc2.peer[249] HopCount ETV
vector 250 Tictoc2.peer[250] HopCount ETV
vector 251 Tictoc2.peer[251] HopCount ETV
vector 252 Tictoc2.peer[252] HopCount ETV
vector 253 Tictoc2.peer[253] HopCount ETV
vector 254 Tictoc2.peer[254] HopCount ETV
vector 255 Tictoc2.peer[255] HopCount ETV
vector 256 Tictoc2.peer[256] HopCount ETV
vector 257 Tictoc2.peer[257] HopCount ETV
vector 258 Tictoc2.peer[258] HopCount ETV
vector 259 Tictoc2.peer[259] HopCount ETV
vector 260 Tictoc2.peer[260] HopCount ETV
vector 261 Tictoc2.peer[261] HopCount ETV
vector 262 Tictoc2.peer[262] HopCount ETV
vector 263 Tictoc2.peer[263] HopCount ETV
vector 264 Tictoc2.peer[264] HopCount ETV
vector 265 Tictoc2.peer[265] HopCount ETV
vector 266 Tictoc2.peer[266] HopCount ETV
vector 267 Tictoc2.peer[267] HopCount ETV
vector 268 Tictoc2.peer[268] HopCount ETV
vector 269 Tictoc2.peer[269] HopCount ETV
vector 270 Tictoc2.peer[270] HopCount ETV
vector 271 Tictoc2.peer[271] HopCount ETV
vector 272 Tictoc2.peer[272] HopCount ETV
vector 273 Tictoc2.peer[273] HopCount ETV
vector 274 Tictoc2.peer[274] HopCount ETV
vector 275 Tictoc2.peer[275] HopCount ETV
vector 276 Tictoc2.peer[276] HopCount ETV
vector 277 Tictoc2.peer[277] HopCount ETV
vector 278 Tictoc2.peer[278] HopCount ETV
vector 279 Tictoc2.peer[279] HopCount ETV
vector 280 Tictoc2.peer[280] HopCount ETV
vector 281 Tictoc2.peer[281] HopCount ETV
vector 282 Tictoc2.peer[282] HopCount ETV
vector 283 Tictoc2.peer[283] HopCount ETV
vector 284 Tictoc2.peer[284] HopCount ETV
vector 285 Tictoc2.peer[285] HopCount ETV
vector 286 Tictoc2.peer[286] HopCount ETV
vector 287 Tictoc2.peer[287] HopCount ETV
vector 288 Tictoc2.peer[288] HopCount ETV
vector 289 Tictoc2.peer[289] HopCount ETV
vector 290 Tictoc2.peer[290] HopCount ETV
vector 291 Tictoc2.peer[291] HopCount ETV
vector 292 Tictoc2.peer[292] HopCount ETV
vector 293 Tictoc2.peer[293] HopCount ETV
vector 294 Tictoc2.peer[294] HopCount ETV
vector 295 Tictoc2.peer[295] HopCount ETV
vector 296 Tictoc2.peer[296] HopCount ETV
vector 297 Tictoc2.peer[297] HopCount ETV
vector 298 Tictoc2.peer[298] HopCount ETV
vector 299 Tictoc2.peer[299] HopCount ETV
vector 300 Tictoc2.peer[300] HopCount ETV
vector 301 Tictoc2.peer[301] HopCount ETV
vector 302 Tictoc2.peer[302] HopCount ETV
vector 303 Tictoc2.peer[303] HopCount ETV
vector 304 Tictoc2.peer[304] HopCount ETV
vector 305 Tictoc2.peer[305] HopCount ETV
vector 306 Tictoc2.peer[306] HopCount ETV
vector 307 Tictoc2.peer[307] HopCount ETV
vector 308 Tictoc2.peer[308] HopCount ETV
vector 309 Tictoc2.peer[309] HopCount ETV
vector 310 Tictoc2.peer[310] HopCount ETV
vector 311 Tictoc2.peer[311] HopCount ETV
vector 312 Tictoc2.peer[312] HopCount ETV
vector 313 Tictoc2.peer[313] HopCount ETV
vector 314 Tictoc2.peer[314] HopCount ETV
vector 315 Tictoc2.peer[315] HopCount ETV
vector 316 Tictoc2.peer[316] HopCount ETV
vector 317 Tictoc2.peer[317] HopCount ETV
vector 318 Tictoc2.peer[318] HopCount ETV
vector 319 Tictoc2.peer[319] HopCount ETV
vector 320 Tictoc2.peer[320] HopCount ETV
vector 321 Tictoc2.peer[321] HopCount ETV
vector 322 Tictoc2.peer[322] HopCount ETV
vector 323 Tictoc2.peer[323] HopCount ETV
vector 324 Tictoc2.peer[324] HopCount ETV
vector 325 Tictoc2.peer[325] HopCount ETV
vector 326 Tictoc2.peer[326] HopCount ETV
vector 327 Tictoc2.peer[327] HopCount ETV
vector 328 Tictoc2.peer[328] HopCount ETV
vector 329 Tictoc2.peer[329] HopCount ETV
vector 330 Tictoc2.peer[330] HopCount ETV
vector 331 Tictoc2.peer[331] HopCount ETV
vector 332 Tictoc2.peer[332] HopCount ETV
vector 333 Tictoc2.peer[333] HopCount ETV
vector 334 Tictoc2.peer[334] HopCount ETV
vector 335 Tictoc2.peer[335] HopCount ETV
vector 336 Tictoc2.peer[336] HopCount ETV
vector 337 Tictoc2.peer[337] HopCount ETV
vector 338 Tictoc2.peer[338] HopCount ETV
vector 339 Tictoc2.peer[339] HopCount ETV
vector 340 Tictoc2.peer[340] HopCount ETV
vector 341 Tictoc2.peer[341] HopCount ETV
vector 342 Tictoc2.peer[342] HopCount ETV
vector 343 Tictoc2.peer[343] HopCount ETV
vector 344 Tictoc2.peer[344] HopCount ETV
vector 345 Tictoc2.peer[345] HopCount ETV
vector 346 Tictoc2.peer[346] HopCount ETV
vector 347 Tictoc2.peer[347] HopCount ETV
vector 348 Tictoc2.peer[348] HopCount ETV
vector 349 Tictoc2.peer[349] HopCount ETV
vector 350 Tictoc2.peer[350] HopCount ETV
vector 351 Tictoc2.peer[351] HopCount ETV
vector 352 Tictoc2.peer[352] HopCount ETV
vector 353 Tictoc2.peer[353] HopCount ETV
vector 354 Tictoc2.peer[354] HopCount ETV
vector 355 Tictoc2.peer[355] HopCount ETV
vector 356 Tictoc2.peer[356] HopCount ETV
vector 357 Tictoc2.peer[357] HopCount ETV
vector 358 Tictoc2.peer[358] HopCount ETV
vector 359 Tictoc2.peer[359] HopCount ETV
vector 360 Tictoc2.peer[360] HopCount ETV
vector 361 Tictoc2.peer[361] HopCount ETV
vector 362 Tictoc2.peer[362] HopCount ETV
vector 363 Tictoc2.peer[363] HopCount ETV
vector 364 Tictoc2.peer[364] HopCount ETV
vector 365 Tictoc2.peer[365] HopCount ETV
vector 366 Tictoc2.peer[366] HopCount ETV
vector 367 Tictoc2.peer[367] HopCount ETV
vector 368 Tictoc2.peer[368] HopCount ETV
vector 369 Tictoc2.peer[369] HopCount ETV
vector 370 Tictoc2.peer[370] HopCount ETV
vector 371 Tictoc2.peer[371] HopCount ETV
vector 372 Tictoc2.peer[372] HopCount ETV
vector 373 Tictoc2.peer[373] HopCount ETV
vector 374 Tictoc2.peer[374] HopCount ETV
vector 375 Tictoc2.peer[375] HopCount ETV
vector 376 Tictoc2.peer[376] HopCount ETV
vector 377 Tictoc2.peer[377] HopCount ETV
vector 378 Tictoc2.peer[378] HopCount ETV
vector 379 Tictoc2.peer[379] HopCount ETV
vector 380 Tictoc2.peer[380] HopCount ETV
vector 381 Tictoc2.peer[381] HopCount ETV
vector 382 Tictoc2.peer[382] HopCount ETV
vector 383 Tictoc2.peer[383] HopCount ETV
vector 384 Tictoc2.peer[384] HopCount ETV
vector 385 Tictoc2.peer[385] HopCount ETV
vector 386 Tictoc2.peer[386] HopCount ETV
vector 387 Tictoc2.peer[387] HopCount ETV
vector 388 Tictoc2.peer[388] HopCount ETV
vector 389 Tictoc2.peer[389] HopCount ETV
vector 390 Tictoc2.peer[390] HopCount ETV
vector 391 Tictoc2.peer[391] HopCount ETV
vector 392 Tictoc2.peer[392] HopCount ETV
vector 393 Tictoc2.peer[393] HopCount ETV
vector 394 Tictoc2.peer[394] HopCount ETV
vector 395 Tictoc2.peer[395] HopCount ETV
vector 396 Tictoc2.peer[396] HopCount ETV
vector 397 Tictoc2.peer[397] HopCount ETV
vector 398 Tictoc2.peer[398] HopCount ETV
vector 399 Tictoc2.peer[399] HopCount ETV
vector 400 Tictoc2.peer[400] HopCount ETV
vector 401 Tictoc2.peer[401] HopCount ETV
vector 402 Tictoc2.peer[402] HopCount ETV
vector 403 Tictoc2.peer[403] HopCount ETV
vector 404 Tictoc2.peer[404] HopCount ETV
vector 405 Tictoc2.peer[405] HopCount ETV
vector 406 Tictoc2.peer[406] HopCount ETV
vector 407 Tictoc2.peer[407] HopCount ETV
vector 408 Tictoc2.peer[408] HopCount ETV
vector 409 Tictoc2.peer[409] HopCount ETV
vector 410 Tictoc2.peer[410] HopCount ETV
vector 411 Tictoc2.peer[411] HopCount ETV
vector 412 Tictoc2.peer[412] HopCount ETV
vector 413 Tictoc2.peer[413] HopCount ETV
vector 414 Tictoc2.peer[414] HopCount ETV
vector 415 Tictoc2.peer[415] HopCount ETV
vector 416 Tictoc2.peer[416] HopCount ETV
vector 417 Tictoc2.peer[417] HopCount ETV
vector 418 Tictoc2.peer[418] HopCount ETV
vector 419 Tictoc2.peer[419] HopCount ETV
vector 420 Tictoc2.peer[420] HopCount ETV
vector 421 Tictoc2.peer[421] HopCount ETV
vector 422 Tictoc2.peer[422] HopCount ETV
vector 423 Tictoc2.peer[423] HopCount ETV
vector 424 Tictoc2.peer[424] HopCount ETV
vector 425 Tictoc2.peer[425] HopCount ETV
vector 426 Tictoc2.peer[426] HopCount ETV
vector 427 Tictoc2.peer[427] HopCount ETV
vector 428 Tictoc2.peer[428] HopCount ETV
vector 429 Tictoc2.peer[429] HopCount ETV
vector 430 Tictoc2.peer[430] HopCount ETV
vector 431 Tictoc2.peer[431] HopCount ETV
vector 432 Tictoc2.peer[432] HopCount ETV
vector 433 Tictoc2.peer[433] HopCount ETV
vector 434 Tictoc2.peer[434] HopCount ETV
vector 435 Tictoc2.peer[435] HopCount ETV
vector 436 Tictoc2.peer[436] HopCount ETV
vector 437 Tictoc2.peer[437] HopCount ETV
vector 438 Tictoc2.peer[438] HopCount ETV
vector 439 Tictoc2.peer[439] HopCount ETV
vector 440 Tictoc2.peer[440] HopCount ETV
vector 441 Tictoc2.peer[441] HopCount ETV
vector 442 Tictoc2.peer[442] HopCount ETV
vector 443 Tictoc2.peer[443] HopCount ETV
vector 444 Tictoc2.peer[444] HopCount ETV
vector 445 Tictoc2.peer[445] HopCount ETV
vector 446 Tictoc2.peer[446] HopCount ETV
vector 447 Tictoc2.peer[447] HopCount ETV
vector 448 Tictoc2.peer[448] HopCount ETV
vector 449 Tictoc2.peer[449] HopCount ETV
vector 450 Tictoc2.peer[450] HopCount ETV
vector 451 Tictoc2.peer[451] HopCount ETV
vector 452 Tictoc2.peer[452] HopCount ETV
vector 453 Tictoc2.peer[453] HopCount ETV
vector 454 Tictoc2.peer[454] HopCount ETV
vector 455 Tictoc2.peer[455] HopCount ETV
vector 456 Tictoc2.peer[456] HopCount ETV
vector 457 Tictoc2.peer[457] HopCount ETV
vector 458 Tictoc2.peer[458] HopCount ETV
vector 459 Tictoc2.peer[459] HopCount ETV
vector 460 Tictoc2.peer[460] HopCount ETV
vector 461 Tictoc2.peer[461] HopCount ETV
vector 462 Tictoc2.peer[462] HopCount ETV
vector 463 Tictoc2.peer[463] HopCount ETV
vector 464 Tictoc2.peer[464] HopCount ETV
vector 465 Tictoc2.peer[465] HopCount ETV
vector 466 Tictoc2.peer[466] HopCount ETV
vector 467 Tictoc2.peer[467] HopCount ETV
vector 468 Tictoc2.peer[468] HopCount ETV
vector 469 Tictoc2.peer[469] HopCount ETV
vector 470 Tictoc2.peer[470] HopCount ETV
vector 471 Tictoc2.peer[471] HopCount ETV
vector 472 Tictoc2.peer[472] HopCount ETV
vector 473 Tictoc2.peer[473] HopCount ETV
vector 474 Tictoc2.peer[474] HopCount ETV
vector 475 Tictoc2.peer[475] HopCount ETV
vector 476 Tictoc2.peer[476] HopCount ETV
vector 477 Tictoc2.peer[477] HopCount ETV
vector 478 Tictoc2.peer[478] HopCount ETV
vector 479 Tictoc2.peer[479] HopCount ETV
vector 480 Tictoc2.peer[480] HopCount ETV
vector 481 Tictoc2.peer[481] HopCount ETV
vector 482 Tictoc2.peer[482] HopCount ETV
vector 483 Tictoc2.peer[483] HopCount ETV
vector 484 Tictoc2.peer[484] HopCount ETV
vector 485 Tictoc2.peer[485] HopCount ETV
vector 486 Tictoc2.peer[486] HopCount ETV
vector 487 Tictoc2.peer[487] HopCount ETV
vector 488 Tictoc2.peer[488] HopCount ETV
vector 489 Tictoc2.peer[489] HopCount ETV
vector 490 Tictoc2.peer[490] HopCount ETV
vector 491 Tictoc2.peer[491] HopCount ETV
vector 492 Tictoc2.peer[492] HopCount ETV
vector 493 Tictoc2.peer[493] HopCount ETV
vector 494 Tictoc2.peer[494] HopCount ETV
vector 495 Tictoc2.peer[495] HopCount ETV
vector 496 Tictoc2.peer[496] HopCount ETV
vector 497 Tictoc2.peer[497] HopCount ETV
vector 498 Tictoc2.peer[498] HopCount ETV
vector 499 Tictoc2.peer[499] HopCount ETV
0	21209 1539 9501 141323 1.5 51 100 1 100 5050 338350
1	22748 465 9502 96847 1.5 17.9 32 1 32 528 11440
2	23213 289 9503 66253 1.5 11.5 21 1 21 231 3311
3	23502 718 9504 126875 1.5 27.9 47 1 47 1128 35720
4	24220 703 9505 117412 1.5 23.9 46 1 41 1056 31436
5	24923 229 9506 55476 1.5 9.5 17 1 17 153 1785
6	25152 229 9507 55477 1.5 9.5 17 1 17 153 1785
7	25381 229 9508 55478 1.5 9.5 17 1 17 153 1785
8	25610 409 9509 86341 1.5 15.5 29 1 29 435 8555
9	26019 259 9510 60546 1.5 10.5 19 1 19 190 2470
10	26278 1639 9511 141324 1.5 51 100 1 100 5050 338350
11	27917 921 9512 130149 1.5 29.9 56 1 56 1596 60116
12	28838 502 9513 95052 1.5 17.5 33 1 33 561 12529
13	29340 571 9514 104356 1.5 19.9 37 1 37 703 17575
14	29911 690 9515 121172 1.5 25.4 43 1 43 946 27434
15	30601 858 9516 128631 1.5 28.9 54 1 54 1485 53955
16	31459 719 9517 117381 1.5 23.9 45 1 45 1035 31395
17	32178 840 9518 126097 1.5 27.5 53 1 53 1431 51039
18	33018 438 9519 86348 1.5 15.5 29 1 29 435 8555
19	33456 406 9520 81313 1.5 14.5 27 1 27 378 6930
20	33862 1639 9521 141325 1.5 51 100 1 100 5050 338350
21	35501 342 9522 73691 1.5 12.9 23 1 23 276 4324
22	35843 670 9523 113041 1.5 22.5 43 1 43 946 27434
23	36513 772 9524 121541 1.5 25.5 49 1 49 1225 40425
24	37285 723 9525 117368 1.5 23.9 45 1 45 1035 31395
25	38008 886 9526 128610 1.5 28.9 55 1 55 1540 56980
26	38894 677 9527 119127 1.5 24.6 43 1 43 946 27434
27	39571 543 9528 100474 1.5 18.9 35 1 35 630 14910
28	40114 342 9529 71330 1.5 12.5 23 1 23 276 4324
29	40456 568 9530 102712 1.5 19.5 37 1 37 703 17575
30	41024 1639 9531 141326 1.5 51 100 1 100 5050 338350
31	42663 406 9532 81321 1.5 14.5 27 1 27 378 6930
32	43069 602 9533 106231 1.5 20.5 39 1 39 780 20540
33	43671 723 9534 117369 1.5 23.9 45 1 45 1035 31395
34	44394 878 9535 128630 1.5 28.9 55 1 55 1540 56980
35	45272 438 9536 86358 1.5 15.5 29 1 29 435 8555
36	45710 374 9537 76576 1.5 13.5 25 1 25 325 5525
37	46084 898 9538 130159 1.5 29.9 56 1 56 1596 60116
38	46982 840 9539 126100 1.5 27.5 53 1 53 1431 51039
39	47822 638 9540 111380 1.5 21.9 41 1 41 861 23821
40	48460 1639 9541 141327 1.5 51 100 1 100 5050 338350
41	50099 604 9542 107822 1.5 20.9 39 1 39 780 20540
42	50703 848 9543 126885 1.5 27.9 53 1 53 1431 51039
43	51551 704 9544 116200 1.5 23.5 45 1 45 1035 31395
44	52255 795 9545 122508 1.5 25.9 49 1 49 1225 40425
45	53050 568 9546 102722 1.5 19.5 37 1 37 703 17575
46	53618 374 9547 76586 1.5 13.5 25 1 25 325 5525
47	53992 310 9548 66291 1.5 11.5 21 1 21 231 3311
48	54302 342 9549 73692 1.5 12.9 23 1 23 276 4324
49	54644 784 9550 122521 1.5 25.9 49 1 49 1225 40425
50	55428 1687 9551 142044 1.5 55.7 100 1 100 5050 338350
51	57115 670 9552 113051 1.5 22.5 43 1 43 946 27434
52	57785 902 9553 130151 1.5 29.9 56 1 56 1596 60116
53	58687 246 9554 55524 1.5 9.5 17 1 17 153 1785
54	58933 840 9555 126103 1.5 27.5 53 1 53 1431 51039
55	59773 568 9556 102727 1.5 19.5 37 1 37 703 17575
56	60341 246 9557 55527 1.5 9.5 17 1 17 153 1785
57	60587 470 9558 90715 1.5 16.5 31 1 31 496 10416
58	61057 278 9559 60593 1.5 10.5 19 1 19 190 2470
59	61335 470 9560 90716 1.5 16.5 31 1 31 496 10416
60	61805 1639 9561 141328 1.5 51 100 1 100 5050 338350
61	63444 246 9562 55532 1.5 9.5 17 1 17 153 1785
62	63690 534 9563 98822 1.5 18.5 35 1 35 630 14910
63	64224 438 9564 86377 1.5 15.5 29 1 29 435 8555
64	64662 514 9565 96799 1.5 17.9 33 1 33 561 12529
65	65176 374 9566 76598 1.5 13.5 25 1 25 325 5525
66	65550 745 9567 119985 1.5 24.9 46 1 46 1081 33511
67	66295 602 9568 107789 1.5 20.9 38 1 38 741 19019
68	66897 342 9569 71361 1.5 12.5 23 1 23 276 4324
69	67239 926 9570 130145 1.5 29.9 57 1 57 1653 63365
70	68165 1639 9571 141329 1.5 51 100 1 100 5050 338350
71	69804 246 9572 55542 1.5 9.5 17 1 17 153 1785
72	70050 636 9573 109927 1.5 21.5 41 1 41 861 23821
73	70686 738 9574 118883 1.5 24.5 47 1 47 1128 35720
74	71424 376 9575 78843 1.5 13.9 25 1 25 325 5525
75	71800 636 9576 109929 1.5 21.5 41 1 41 861 23821
76	72436 801 9577 122502 1.5 25.9 49 1 49 1225 40425
77	73237 759 9578 119963 1.5 24.9 47 1 47 1128 35720
78	73996 342 9579 71368 1.5 12.5 23 1 23 276 4324
79	74338 246 9580 55550 1.5 9.5 17 1 17 153 1785
80	74584 1639 9581 141330 1.5 51 100 1 100 5050 338350
81	76223 246 9582 55552 1.5 9.5 17 1 17 153 1785
82	76469 704 9583 116207 1.5 23.5 45 1 45 1035 31395
83	77173 470 9584 90726 1.5 16.5 31 1 31 496 10416
84	77643 438 9585 86386 1.5 15.5 29 1 29 435 8555
85	78081 406 9586 81353 1.5 14.5 27 1 27 378 6930
86	78487 246 9587 55557 1.5 9.5 17 1 17 153 1785
87	78733 568 9588 102736 1.5 19.5 37 1 37 703 17575
88	79301 808 9589 124761 1.5 26.9 51 1 51 1326 45526
89	80109 278 9590 60619 1.5 10.5 19 1 19 190 2470
90	80387 1639 9591 141331 1.5 51 100 1 100 5050 338350
91	82026 406 9592 81357 1.5 14.5 27 1 27 378 6930
92	82432 374 9593 76614 1.5 13.5 25 1 25 325 5525
93	82806 907 9594 129982 1.5 29.8 55 1 55 1540 56980
94	83713 470 9595 90730 1.5 16.5 31 1 31 496 10416
95	84183 649 9596 111338 1.5 21.9 41 1 41 861 23821
96	84832 342 9597 71381 1.5 12.5 23 1 23 276 4324
97	85174 670 9598 113061 1.5 22.5 43 1 43 946 27434
98	85844 502 9599 95092 1.5 17.5 33 1 33 561 12529
99	86346 463 9600 92572 1.5 16.9 30 1 30 465 9455
100	86809 1789 9601 142070 1.5 55.9 100 1 100 5050 338350
101	88598 511 9602 95048 1.5 17.5 31 1 31 496 10416
102	89109 562 9603 104349 1.5 19.9 34 1 34 595 13685
103	89671 365 9604 71385 1.5 12.5 23 1 23 276 4324
104	90036 878 9605 127286 1.5 28.2 52 1 52 1378 48230
105	90914 401 9606 86802 1.5 15.6 25 1 25 325 5525
106	91315 1227 9607 130150 1.5 29.9 69 1 50 2074 77044
107	92542 872 9608 126898 1.5 27.9 50 1 50 1275 42925
108	93414 574 9609 107827 1.5 20.9 35 1 35 630 14910
109	93988 812 9610 119954 1.5 24.9 47 1 47 1128 35720
110	94800 1787 9611 142045 1.5 55.7 100 1 100 5050 338350
111	96587 749 9612 116213 1.5 23.5 45 1 45 1035 31395
112	97336 570 9613 100520 1.5 18.9 35 1 35 630 14910
113	97906 297 9614 60640 1.5 10.5 19 1 19 190 2470
114	98203 857 9615 127288 1.5 28.2 51 1 51 1326 45526
115	99060 740 9616 117353 1.5 23.9 44 1 44 990 29370
116	99800 645 9617 107748 1.5 20.9 39 1 39 780 20540
117	100445 713 9618 113067 1.5 22.5 43 1 43 946 27434
118	101158 935 9619 128625 1.5 28.9 54 1 54 1485 53955
119	102093 842 9620 122509 1.5 25.9 49 1 49 1225 40425
120	102935 1787 9621 142276 1.5 64.5 100 1 100 5050 338350
121	104722 865 9622 124738 1.5 26.9 50 1 50 1275 42925
122	105587 399 9623 76632 1.5 13.5 25 1 25 325 5525
123	105986 605 9624 102747 1.5 19.5 37 1 37 703 17575
124	106591 331 9625 66351 1.5 11.5 21 1 21 231 3311
125	106922 535 9626 95104 1.5 17.5 33 1 33 561 12529
126	107457 399 9627 76635 1.5 13.5 25 1 25 325 5525
127	107856 793 9628 126282 1.5 27.6 47 1 47 1128 35720
128	108649 827 9629 122518 1.5 25.9 48 1 48 1176 38024
129	109476 263 9630 55600 1.5 9.5 17 1 17 153 1785
130	109739 1739 9631 141332 1.5 51 100 1 100 5050 338350
131	111478 973 9632 130146 1.5 29.9 56 1 56 1596 60116
132	112451 643 9633 107203 1.5 20.7 39 1 39 780 20540
133	113094 862 9634 128107 1.5 28.6 50 1 50 1275 42925
134	113956 435 9635 82664 1.5 14.7 27 1 27 378 6930
135	114391 331 9636 66361 1.5 11.5 21 1 21 231 3311
136	114722 822 9637 124574 1.5 26.8 48 1 48 1176 38024
137	115544 605 9638 102750 1.5 19.5 37 1 37 703 17575
138	116149 967 9639 130153 1.5 29.9 57 1 57 1653 63365
139	117116 903 9640 126879 1.5 27.9 53 1 53 1431 51039
140	118019 1739 9641 141333 1.5 51 100 1 100 5050 338350
141	119758 399 9642 76647 1.5 13.5 25 1 25 325 5525
142	120157 821 9643 121559 1.5 25.5 49 1 49 1225 40425
143	120978 804 9644 121230 1.5 25.4 48 1 48 1176 38024
144	121782 859 9645 124763 1.5 26.9 51 1 51 1326 45526
145	122641 467 9646 86417 1.5 15.5 29 1 29 435 8555
146	123108 690 9647 116976 1.5 23.8 41 1 41 861 23821
147	123798 839 9648 129091 1.5 29.2 49 1 49 1225 40425
148	124637 633 9649 110847 1.5 21.8 38 1 38 741 19019
149	125270 821 9650 121561 1.5 25.5 49 1 49 1225 40425
150	126091 1739 9651 141334 1.5 51 100 1 100 5050 338350
151	127830 918 9652 128600 1.5 28.9 54 1 54 1485 53955
152	128748 715 9653 113868 1.5 22.7 43 1 43 946 27434
153	129463 681 9654 109439 1.5 21.4 40 1 40 820 22140
154	130144 810 9655 121996 1.5 25.7 48 1 48 1176 38024
155	130954 399 9656 76658 1.5 13.5 25 1 25 325 5525
156	131353 757 9657 117393 1.5 23.9 44 1 44 990 29370
157	132110 929 9658 129089 1.5 29.2 54 1 54 1485 53955
158	133039 511 9659 92587 1.5 16.9 31 1 31 496 10416
159	133550 610 9660 104344 1.5 19.9 37 1 37 703 17575
160	134160 1739 9661 141335 1.5 51 100 1 100 5050 338350
161	135899 369 9662 73655 1.5 12.9 23 1 23 276 4324
162	136268 795 9663 119975 1.5 24.9 47 1 47 1128 35720
163	137063 592 9664 108857 1.5 21.2 36 1 36 666 16206
164	137655 297 9665 60687 1.5 10.5 19 1 19 190 2470
165	137952 654 9666 107767 1.5 20.9 39 1 39 780 20540