version 3
run Tictoc2-0-20240214-19:43:50-5782
attr configname Tictoc2
attr datetime 20240214-19:43:50
attr datetimef 20240214-194350
attr experiment Tictoc2
attr inifile omnetpp.ini
attr iterationvars ""
attr iterationvarsd ""
attr iterationvarsf ""
attr measurement ""
attr network Tictoc2
attr processid 5782
attr repetition 0
attr replication #0
attr resultdir results
attr runnumber 0
attr seedset 0
config network Tictoc2

vector 0 Tictoc2.peer[0] HopCount ETV
vector 1 Tictoc2.peer[1] HopCount ETV
vector 2 Tictoc2.peer[2] HopCount ETV
vector 3 Tictoc2.peer[3] HopCount ETV
vector 4 Tictoc2.peer[4] HopCount ETV
vector 5 Tictoc2.peer[5] HopCount ETV
vector 6 Tictoc2.peer[6] HopCount ETV
vector 7 Tictoc2.peer[7] HopCount ETV
vector 8 Tictoc2.peer[8] HopCount ETV
vector 9 Tictoc2.peer[9] HopCount ETV
vector 10 Tictoc2.peer[10] HopCount ETV
vector 11 Tictoc2.peer[11] HopCount ETV
vector 12 Tictoc2.peer[12] HopCount ETV
vector 13 Tictoc2.peer[13] HopCount ETV
vector 14 Tictoc2.peer[14] HopCount ETV
vector 15 Tictoc2.peer[15] HopCount ETV
vector 16 Tictoc2.peer[16] HopCount ETV
vector 17 Tictoc2.peer[17] HopCount ETV
vector 18 Tictoc2.peer[18] HopCount ETV
vector 19 Tictoc2.peer[19] HopCount ETV
vector 20 Tictoc2.peer[20] HopCount ETV
vector 21 Tictoc2.peer[21] HopCount ETV
vector 22 Tictoc2.peer[22] HopCount ETV
vector 23 Tictoc2.peer[23] HopCount ETV
vector 24 Tictoc2.peer[24] HopCount ETV
vector 25 Tictoc2.peer[25] HopCount ETV
vector 26 Tictoc2.peer[26] HopCount ETV
vector 27 Tictoc2.peer[27] HopCount ETV
vector 28 Tictoc2.peer[28] HopCount ETV
vector 29 Tictoc2.peer[29] HopCount ETV
vector 30 Tictoc2.peer[30] HopCount ETV
vector 31 Tictoc2.peer[31] HopCount ETV
vector 32 Tictoc2.peer[32] HopCount ETV
vector 33 Tictoc2.peer[33] HopCount ETV
vector 34 Tictoc2.peer[34] HopCount ETV
vector 35 Tictoc2.peer[35] HopCount ETV
vector 36 Tictoc2.peer[36] HopCount ETV
vector 37 Tictoc2.peer[37] HopCount ETV
vector 38 Tictoc2.peer[38] HopCount ETV
vector 39 Tictoc2.peer[39] HopCount ETV
vector 40 Tictoc2.peer[40] HopCount ETV
vector 41 Tictoc2.peer[41] HopCount ETV
vector 42 Tictoc2.peer[42] HopCount ETV
vector 43 Tictoc2.peer[43] HopCount ETV
vector 44 Tictoc2.peer[44] HopCount ETV
vector 45 Tictoc2.peer[45] HopCount ETV
vector 46 Tictoc2.peer[46] HopCount ETV
vector 47 Tictoc2.peer[47] HopCount ETV
vector 48 Tictoc2.peer[48] HopCount ETV
vector 49 Tictoc2.peer[49] HopCount ETV
vector 50 Tictoc2.peer[50] HopCount ETV
vector 51 Tictoc2.peer[51] HopCount ETV
vector 52 Tictoc2.peer[52] HopCount ETV
vector 53 Tictoc2.peer[53] HopCount ETV
vector 54 Tictoc2.peer[54] HopCount ETV
vector 55 Tictoc2.peer[55] HopCount ETV
vector 56 Tictoc2.peer[56] HopCount ETV
vector 57 Tictoc2.peer[57] HopCount ETV
vector 58 Tictoc2.peer[58] HopCount ETV
vector 59 Tictoc2.peer[59] HopCount ETV
vector 60 Tictoc2.peer[60] HopCount ETV
vector 61 Tictoc2.peer[61] HopCount ETV
vector 62 Tictoc2.peer[62] HopCount ETV
vector 63 Tictoc2.peer[63] HopCount ETV
vector 64 Tictoc2.peer[64] HopCount ETV
vector 65 Tictoc2.peer[65] HopCount ETV
vector 66 Tictoc2.peer[66] HopCount ETV
vector 67 Tictoc2.peer[67] HopCount ETV
vector 68 Tictoc2.peer[68] HopCount ETV
vector 69 Tictoc2.peer[69] HopCount ETV
vector 70 Tictoc2.peer[70] HopCount ETV
vector 71 Tictoc2.peer[71] HopCount ETV
vector 72 Tictoc2.peer[72] HopCount ETV
vector 73 Tictoc2.peer[73] HopCount ETV
vector 74 Tictoc2.peer[74] HopCount ETV
vector 75 Tictoc2.peer[75] HopCount ETV
vector 76 Tictoc2.peer[76] HopCount ETV
vector 77 Tictoc2.peer[77] HopCount ETV
vector 78 Tictoc2.peer[78] HopCount ETV
vector 79 Tictoc2.peer[79] HopCount ETV
vector 80 Tictoc2.peer[80] HopCount ETV
vector 81 Tictoc2.peer[81] HopCount ETV
vector 82 Tictoc2.peer[82] HopCount ETV
vector 83 Tictoc2.peer[83] HopCount ETV
vector 84 Tictoc2.peer[84] HopCount ETV
vector 85 Tictoc2.peer[85] HopCount ETV
vector 86 Tictoc2.peer[86] HopCount ETV
vector 87 Tictoc2.peer[87] HopCount ETV
vector 88 Tictoc2.peer[88] HopCount ETV
vector 89 Tictoc2.peer[89] HopCount ETV
vector 90 Tictoc2.peer[90] HopCount ETV
vector 91 Tictoc2.peer[91] HopCount ETV
vector 92 Tictoc2.peer[92] HopCount ETV
vector 93 Tictoc2.peer[93] HopCount ETV
vector 94 Tictoc2.peer[94] HopCount ETV
vector 95 Tictoc2.peer[95] HopCount ETV
vector 96 Tictoc2.peer[96] HopCount ETV
vector 97 Tictoc2.peer[97] HopCount ETV
vector 98 Tictoc2.peer[98] HopCount ETV
vector 99 Tictoc2.peer[99] HopCount ETV
vector 100 Tictoc2.peer[100] HopCount ETV
vector 101 Tictoc2.peer[101] HopCount ETV
vector 102 Tictoc2.peer[102] HopCount ETV
vector 103 Tictoc2.peer[103] HopCount ETV
vector 104 Tictoc2.peer[104] HopCount ETV
vector 105 Tictoc2.peer[105] HopCount ETV
vector 106 Tictoc2.peer[106] HopCount ETV
vector 107 Tictoc2.peer[107] HopCount ETV
vector 108 Tictoc2.peer[108] HopCount ETV
vector 109 Tictoc2.peer[109] HopCount ETV
vector 110 Tictoc2.peer[110] HopCount ETV
vector 111 Tictoc2.peer[111] HopCount ETV
vector 112 Tictoc2.peer[112] HopCount ETV
vector 113 Tictoc2.peer[113] HopCount ETV
vector 114 Tictoc2.peer[114] HopCount ETV
vector 115 Tictoc2.peer[115] HopCount ETV
vector 116 Tictoc2.peer[116] HopCount ETV
vector 117 Tictoc2.peer[117] HopCount ETV
vector 118 Tictoc2.peer[118] HopCount ETV
vector 119 Tictoc2.peer[119] HopCount ETV
vector 120 Tictoc2.peer[120] HopCount ETV
vector 121 Tictoc2.peer[121] HopCount ETV
vector 122 Tictoc2.peer[122] HopCount ETV
vector 123 Tictoc2.peer[123] HopCount ETV
vector 124 Tictoc2.peer[124] HopCount ETV
vector 125 Tictoc2.peer[125] HopCount ETV
vector 126 Tictoc2.peer[126] HopCount ETV
vector 127 Tictoc2.peer[127] HopCount ETV
vector 128 Tictoc2.peer[128] HopCount ETV
vector 129 Tictoc2.peer[129] HopCount ETV
vector 130 Tictoc2.peer[130] HopCount ETV
vector 131 Tictoc2.peer[131] HopCount ETV
vector 132 Tictoc2.peer[132] HopCount ETV
vector 133 Tictoc2.peer[133] HopCount ETV
vector 134 Tictoc2.peer[134] HopCount ETV
vector 135 Tictoc2.peer[135] HopCount ETV
vector 136 Tictoc2.peer[136] HopCount ETV
vector 137 Tictoc2.peer[137] HopCount ETV
vector 138 Tictoc2.peer[138] HopCount ETV
vector 139 Tictoc2.peer[139] HopCount ETV
vector 140 Tictoc2.peer[140] HopCount ETV
vector 141 Tictoc2.peer[141] HopCount ETV
vector 142 Tictoc2.peer[142] HopCount ETV
vector 143 Tictoc2.peer[143] HopCount ETV
vector 144 Tictoc2.peer[144] HopCount ETV
vector 145 Tictoc2.peer[145] HopCount ETV
vector 146 Tictoc2.peer[146] HopCount ETV
vector 147 Tictoc2.peer[147] HopCount ETV
vector 148 Tictoc2.peer[148] HopCount ETV
vector 149 Tictoc2.peer[149] HopCount ETV
vector 150 Tictoc2.peer[150] HopCount ETV
vector 151 Tictoc2.peer[151] HopCount ETV
vector 152 Tictoc2.peer[152] HopCount ETV
vector 153 Tictoc2.peer[153] HopCount ETV
vector 154 Tictoc2.peer[154] HopCount ETV
vector 155 Tictoc2.peer[155] HopCount ETV
vector 156 Tictoc2.peer[156] HopCount ETV
vector 157 Tictoc2.peer[157] HopCount ETV
vector 158 Tictoc2.peer[158] HopCount ETV
vector 159 Tictoc2.peer[159] HopCount ETV
vector 160 Tictoc2.peer[160] HopCount ETV
vector 161 Tictoc2.peer[161] HopCount ETV
vector 162 Tictoc2.peer[162] HopCount ETV
vector 163 Tictoc2.peer[163] HopCount ETV
vector 164 Tictoc2.peer[164] HopCount ETV
vector 165 Tictoc2.peer[165] HopCount ETV
vector 166 Tictoc2.peer[166] HopCount ETV
vector 167 Tictoc2.peer[167] HopCount ETV
vector 168 Tictoc2.peer[168] HopCount ETV
vector 169 Tictoc2.peer[169] HopCount ETV
vector 170 Tictoc2.peer[170] HopCount ETV
vector 171 Tictoc2.peer[171] HopCount ETV
vector 172 Tictoc2.peer[172] HopCount ETV
vector 173 Tictoc2.peer[173] HopCount ETV
vector 174 Tictoc2.peer[174] HopCount ETV
vector 175 Tictoc2.peer[175] HopCount ETV
vector 176 Tictoc2.peer[176] HopCount ETV
vector 177 Tictoc2.peer[177] HopCount ETV
vector 178 Tictoc2.peer[178] HopCount ETV
vector 179 Tictoc2.peer[179] HopCount ETV
vector 180 Tictoc2.peer[180] HopCount ETV
vector 181 Tictoc2.peer[181] HopCount ETV
vector 182 Tictoc2.peer[182] HopCount ETV
vector 183 Tictoc2.peer[183] HopCount ETV
vector 184 Tictoc2.peer[184] HopCount ETV
vector 185 Tictoc2.peer[185] HopCount ETV
vector 186 Tictoc2.peer[186] HopCount ETV
vector 187 Tictoc2.peer[187] HopCount ETV
vector 188 Tictoc2.peer[188] HopCount ETV
vector 189 Tictoc2.peer[189] HopCount ETV
vector 190 Tictoc2.peer[190] HopCount ETV
vector 191 Tictoc2.peer[191] HopCount ETV
vector 192 Tictoc2.peer[192] HopCount ETV
vector 193 Tictoc2.peer[193] HopCount ETV
vector 194 Tictoc2.peer[194] HopCount ETV
vector 195 Tictoc2.peer[195] HopCount ETV
vector 196 Tictoc2.peer[196] HopCount ETV
vector 197 Tictoc2.peer[197] HopCount ETV
vector 198 Tictoc2.peer[198] HopCount ETV
vector 199 Tictoc2.peer[199] HopCount ETV
vector 200 Tictoc2.peer[200] HopCount ETV
vector 201 Tictoc2.peer[201] HopCount ETV
vector 202 Tictoc2.peer[202] HopCount ETV
vector 203 Tictoc2.peer[203] HopCount ETV
vector 204 Tictoc2.peer[204] HopCount ETV
vector 205 Tictoc2.peer[205] HopCount ETV
vector 206 Tictoc2.peer[206] HopCount ETV
vector 207 Tictoc2.peer[207] HopCount ETV
vector 208 Tictoc2.peer[208] HopCount ETV
vector 209 Tictoc2.peer[209] HopCount ETV
vector 210 Tictoc2.peer[210] HopCount ETV
vector 211 Tictoc2.peer[211] HopCount ETV
vector 212 Tictoc2.peer[212] HopCount ETV
vector 213 Tictoc2.peer[213] HopCount ETV
vector 214 Tictoc2.peer[214] HopCount ETV
vector 215 Tictoc2.peer[215] HopCount ETV
vector 216 Tictoc2.peer[216] HopCount ETV
vector 217 Tictoc2.peer[217] HopCount ETV
vector 218 Tictoc2.peer[218] HopCount ETV
vector 219 Tictoc2.peer[219] HopCount ETV
vector 220 Tictoc2.peer[220] HopCount ETV
vector 221 Tictoc2.peer[221] HopCount ETV
vector 222 Tictoc2.peer[222] HopCount ETV
vector 223 Tictoc2.peer[223] HopCount ETV
vector 224 Tictoc2.peer[224] HopCount ETV
vector 225 Tictoc2.peer[225] HopCount ETV
vector 226 Tictoc2.peer[226] HopCount ETV
vector 227 Tictoc2.peer[227] HopCount ETV
vector 228 Tictoc2.peer[228] HopCount ETV
vector 229 Tictoc2.peer[229] HopCount ETV
vector 230 Tictoc2.peer[230] HopCount ETV
vector 231 Tictoc2.peer[231] HopCount ETV
vector 232 Tictoc2.peer[232] HopCount ETV
vector 233 Tictoc2.peer[233] HopCount ETV
vector 234 Tictoc2.peer[234] HopCount ETV
vector 235 Tictoc2.peer[235] HopCount ETV
vector 236 Tictoc2.peer[236] HopCount ETV
vector 237 Tictoc2.peer[237] HopCount ETV
vector 238 Tictoc2.peer[238] HopCount ETV
vector 239 Tictoc2.peer[239] HopCount ETV
vector 240 Tictoc2.peer[240] HopCount ETV
vector 241 Tictoc2.peer[241] HopCount ETV
vector 242 Tictoc2.peer[242] HopCount ETV
vector 243 Tictoc2.peer[243] HopCount ETV
vector 244 Tictoc2.peer[244] HopCount ETV
vector 245 Tictoc2.peer[245] HopCount ETV
vector 246 Tictoc2.peer[246] HopCount ETV
vector 247 Tictoc2.peer[247] HopCount ETV
vector 248 Tictoc2.peer[248] HopCount ETV
vector 249 Tictoc2.peer[249] HopCount ETV
vector 250 Tictoc2.peer[250] HopCount ETV
vector 251 Tictoc2.peer[251] HopCount ETV
vector 252 Tictoc2.peer[252] HopCount ETV
vector 253 Tictoc2.peer[253] HopCount ETV
vector 254 Tictoc2.peer[254] HopCount ETV
vector 255 Tictoc2.peer[255] HopCount ETV
vector 256 Tictoc2.peer[256] HopCount ETV
vector 257 Tictoc2.peer[257] HopCount ETV
vector 258 Tictoc2.peer[258] HopCount ETV
vector 259 Tictoc2.peer[259] HopCount ETV
vector 260 Tictoc2.peer[260] HopCount ETV
vector 261 Tictoc2.peer[261] HopCount ETV
vector 262 Tictoc2.peer[262] HopCount ETV
vector 263 Tictoc2.peer[263] HopCount ETV
vector 264 Tictoc2.peer[264] HopCount ETV
vector 265 Tictoc2.peer[265] HopCount ETV
vector 266 Tictoc2.peer[266] HopCount ETV
vector 267 Tictoc2.peer[267] HopCount ETV
vector 268 Tictoc2.peer[268] HopCount ETV
vector 269 Tictoc2.peer[269] HopCount ETV
vector 270 Tictoc2.peer[270] HopCount ETV
vector 271 Tictoc2.peer[271] HopCount ETV
vector 272 Tictoc2.peer[272] HopCount ETV
vector 273 Tictoc2.peer[273] HopCount ETV
vector 274 Tictoc2.peer[274] HopCount ETV
vector 275 Tictoc2.peer[275] HopCount ETV
vector 276 Tictoc2.peer[276] HopCount ETV
vector 277 Tictoc2.peer[277] HopCount ETV
vector 278 Tictoc2.peer[278] HopCount ETV
vector 279 Tictoc2.peer[279] HopCount ETV
vector 280 Tictoc2.peer[280] HopCount ETV
vector 281 Tictoc2.peer[281] HopCount ETV
vector 282 Tictoc2.peer[282] HopCount ETV
vector 283 Tictoc2.peer[283] HopCount ETV
vector 284 Tictoc2.peer[284] HopCount ETV
vector 285 Tictoc2.peer[285] HopCount ETV
vector 286 Tictoc2.peer[286] HopCount ETV
vector 287 Tictoc2.peer[287] HopCount ETV
vector 288 Tictoc2.peer[288] HopCount ETV
vector 289 Tictoc2.peer[289] HopCount ETV
vector 290 Tictoc2.peer[290] HopCount ETV
vector 291 Tictoc2.peer[291] HopCount ETV
vector 292 Tictoc2.peer[292] HopCount ETV
vector 293 Tictoc2.peer[293] HopCount ETV
vector 294 Tictoc2.peer[294] HopCount ETV
vector 295 Tictoc2.peer[295] HopCount ETV
vector 296 Tictoc2.peer[296] HopCount ETV
vector 297 Tictoc2.peer[297] HopCount ETV
vector 298 Tictoc2.peer[298] HopCount ETV
vector 299 Tictoc2.peer[299] HopCount ETV
vector 300 Tictoc2.peer[300] HopCount ETV
vector 301 Tictoc2.peer[301] HopCount ETV
vector 302 Tictoc2.peer[302] HopCount ETV
vector 303 Tictoc2.peer[303] HopCount ETV
vector 304 Tictoc2.peer[304] HopCount ETV
vector 305 Tictoc2.peer[305] HopCount ETV
vector 306 Tictoc2.peer[306] HopCount ETV
vector 307 Tictoc2.peer[307] HopCount ETV
vector 308 Tictoc2.peer[308] HopCount ETV
vector 309 Tictoc2.peer[309] HopCount ETV
vector 310 Tictoc2.peer[310] HopCount ETV
vector 311 Tictoc2.peer[311] HopCount ETV
vector 312 Tictoc2.peer[312] HopCount ETV
vector 313 Tictoc2.peer[313] HopCount ETV
vector 314 Tictoc2.peer[314] HopCount ETV
vector 315 Tictoc2.peer[315] HopCount ETV
vector 316 Tictoc2.peer[316] HopCount ETV
vector 317 Tictoc2.peer[317] HopCount ETV
vector 318 Tictoc2.peer[318] HopCount ETV
vector 319 Tictoc2.peer[319] HopCount ETV
vector 320 Tictoc2.peer[320] HopCount ETV
vector 321 Tictoc2.peer[321] HopCount ETV
vector 322 Tictoc2.peer[322] HopCount ETV
vector 323 Tictoc2.peer[323] HopCount ETV
vector 324 Tictoc2.peer[324] HopCount ETV
vector 325 Tictoc2.peer[325] HopCount ETV
vector 326 Tictoc2.peer[326] HopCount ETV
vector 327 Tictoc2.peer[327] HopCount ETV
vector 328 Tictoc2.peer[328] HopCount ETV
vector 329 Tictoc2.peer[329] HopCount ETV
vector 330 Tictoc2.peer[330] HopCount ETV
vector 331 Tictoc2.peer[331] HopCount ETV
vector 332 Tictoc2.peer[332] HopCount ETV
vector 333 Tictoc2.peer[333] HopCount ETV
vector 334 Tictoc2.peer[334] HopCount ETV
vector 335 Tictoc2.peer[335] HopCount ETV
vector 336 Tictoc2.peer[336] HopCount ETV
vector 337 Tictoc2.peer[337] HopCount ETV
vector 338 Tictoc2.peer[338] HopCount ETV
vector 339 Tictoc2.peer[339] HopCount ETV
vector 340 Tictoc2.peer[340] HopCount ETV
vector 341 Tictoc2.peer[341] HopCount ETV
vector 342 Tictoc2.peer[342] HopCount ETV
vector 343 Tictoc2.peer[343] HopCount ETV
vector 344 Tictoc2.peer[344] HopCount ETV
vector 345 Tictoc2.peer[345] HopCount ETV
vector 346 Tictoc2.peer[346] HopCount ETV
vector 347 Tictoc2.peer[347] HopCount ETV
vector 348 Tictoc2.peer[348] HopCount ETV
vector 349 Tictoc2.peer[349] HopCount ETV
vector 350 Tictoc2.peer[350] HopCount ETV
vector 351 Tictoc2.peer[351] HopCount ETV
vector 352 Tictoc2.peer[352] HopCount ETV
vector 353 Tictoc2.peer[353] HopCount ETV
vector 354 Tictoc2.peer[354] HopCount ETV
vector 355 Tictoc2.peer[355] HopCount ETV
vector 356 Tictoc2.peer[356] HopCount ETV
vector 357 Tictoc2.peer[357] HopCount ETV
vector 358 Tictoc2.peer[358] HopCount ETV
vector 359 Tictoc2.peer[359] HopCount ETV
vector 360 Tictoc2.peer[360] HopCount ETV
vector 361 Tictoc2.peer[361] HopCount ETV
vector 362 Tictoc2.peer[362] HopCount ETV
vector 363 Tictoc2.peer[363] HopCount ETV
vector 364 Tictoc2.peer[364] HopCount ETV
vector 365 Tictoc2.peer[365] HopCount ETV
vector 366 Tictoc2.peer[366] HopCount ETV
vector 367 Tictoc2.peer[367] HopCount ETV
vector 368 Tictoc2.peer[368] HopCount ETV
vector 369 Tictoc2.peer[369] HopCount ETV
vector 370 Tictoc2.peer[370] HopCount ETV
vector 371 Tictoc2.peer[371] HopCount ETV
vector 372 Tictoc2.peer[372] HopCount ETV
vector 373 Tictoc2.peer[373] HopCount ETV
vector 374 Tictoc2.peer[374] HopCount ETV
vector 375 Tictoc2.peer[375] HopCount ETV
vector 376 Tictoc2.peer[376] HopCount ETV
vector 377 Tictoc2.peer[377] HopCount ETV
vector 378 Tictoc2.peer[378] HopCount ETV
vector 379 Tictoc2.peer[379] HopCount ETV
vector 380 Tictoc2.peer[380] HopCount ETV
vector 381 Tictoc2.peer[381] HopCount ETV
vector 382 Tictoc2.peer[382] HopCount ETV
vector 383 Tictoc2.peer[383] HopCount ETV
vector 384 Tictoc2.peer[384] HopCount ETV
vector 385 Tictoc2.peer[385] HopCount ETV
vector 386 Tictoc2.peer[386] HopCount ETV
vector 387 Tictoc2.peer[387] HopCount ETV
vector 388 Tictoc2.peer[388] HopCount ETV
vector 389 Tictoc2.peer[389] HopCount ETV
vector 390 Tictoc2.peer[390] HopCount ETV
vector 391 Tictoc2.peer[391] HopCount ETV
vector 392 Tictoc2.peer[392] HopCount ETV
vector 393 Tictoc2.peer[393] HopCount ETV
vector 394 Tictoc2.peer[394] HopCount ETV
vector 395 Tictoc2.peer[395] HopCount ETV
vector 396 Tictoc2.peer[396] HopCount ETV
vector 397 Tictoc2.peer[397] HopCount ETV
vector 398 Tictoc2.peer[398] HopCount ETV
vector 399 Tictoc2.peer[399] HopCount ETV
vector 400 Tictoc2.peer[400] HopCount ETV
vector 401 Tictoc2.peer[401] HopCount ETV
vector 402 Tictoc2.peer[402] HopCount ETV
vector 403 Tictoc2.peer[403] HopCount ETV
vector 404 Tictoc2.peer[404] HopCount ETV
vector 405 Tictoc2.peer[405] HopCount ETV
vector 406 Tictoc2.peer[406] HopCount ETV
vector 407 Tictoc2.peer[407] HopCount ETV
vector 408 Tictoc2.peer[408] HopCount ETV
vector 409 Tictoc2.peer[409] HopCount ETV
vector 410 Tictoc2.peer[410] HopCount ETV
vector 411 Tictoc2.peer[411] HopCount ETV
vector 412 Tictoc2.peer[412] HopCount ETV
vector 413 Tictoc2.peer[413] HopCount ETV
vector 414 Tictoc2.peer[414] HopCount ETV
vector 415 Tictoc2.peer[415] HopCount ETV
vector 416 Tictoc2.peer[416] HopCount ETV
vector 417 Tictoc2.peer[417] HopCount ETV
vector 418 Tictoc2.peer[418] HopCount ETV
vector 419 Tictoc2.peer[419] HopCount ETV
vector 420 Tictoc2.peer[420] HopCount ETV
vector 421 Tictoc2.peer[421] HopCount ETV
vector 422 Tictoc2.peer[422] HopCount ETV
vector 423 Tictoc2.peer[423] HopCount ETV
vector 424 Tictoc2.peer[424] HopCount ETV
vector 425 Tictoc2.peer[425] HopCount ETV
vector 426 Tictoc2.peer[426] HopCount ETV
vector 427 Tictoc2.peer[427] HopCount ETV
vector 428 Tictoc2.peer[428] HopCount ETV
vector 429 Tictoc2.peer[429] HopCount ETV
vector 430 Tictoc2.peer[430] HopCount ETV
vector 431 Tictoc2.peer[431] HopCount ETV
vector 432 Tictoc2.peer[432] HopCount ETV
vector 433 Tictoc2.peer[433] HopCount ETV
vector 434 Tictoc2.peer[434] HopCount ETV
vector 435 Tictoc2.peer[435] HopCount ETV
vector 436 Tictoc2.peer[436] HopCount ETV
vector 437 Tictoc2.peer[437] HopCount ETV
vector 438 Tictoc2.peer[438] HopCount ETV
vector 439 Tictoc2.peer[439] HopCount ETV
vector 440 Tictoc2.peer[440] HopCount ETV
vector 441 Tictoc2.peer[441] HopCount ETV
vector 442 Tictoc2.peer[442] HopCount ETV
vector 443 Tictoc2.peer[443] HopCount ETV
vector 444 Tictoc2.peer[444] HopCount ETV
vector 445 Tictoc2.peer[445] HopCount ETV
vector 446 Tictoc2.peer[446] HopCount ETV
vector 447 Tictoc2.peer[447] HopCount ETV
vector 448 Tictoc2.peer[448] HopCount ETV
vector 449 Tictoc2.peer[449] HopCount ETV
vector 450 Tictoc2.peer[450] HopCount ETV
vector 451 Tictoc2.peer[451] HopCount ETV
vector 452 Tictoc2.peer[452] HopCount ETV
vector 453 Tictoc2.peer[453] HopCount ETV
vector 454 Tictoc2.peer[454] HopCount ETV
vector 455 Tictoc2.peer[455] HopCount ETV
vector 456 Tictoc2.peer[456] HopCount ETV
vector 457 Tictoc2.peer[457] HopCount ETV
vector 458 Tictoc2.peer[458] HopCount ETV
vector 459 Tictoc2.peer[459] HopCount ETV
vector 460 Tictoc2.peer[460] HopCount ETV
vector 461 Tictoc2.peer[461] HopCount ETV
vector 462 Tictoc2.peer[462] HopCount ETV
vector 463 Tictoc2.peer[463] HopCount ETV
vector 464 Tictoc2.peer[464] HopCount ETV
vector 465 Tictoc2.peer[465] HopCount ETV
vector 466 Tictoc2.peer[466] HopCount ETV
vector 467 Tictoc2.peer[467] HopCount ETV
vector 468 Tictoc2.peer[468] HopCount ETV
vector 469 Tictoc2.peer[469] HopCount ETV
vector 470 Tictoc2.peer[470] HopCount ETV
vector 471 Tictoc2.peer[471] HopCount ETV
vector 472 Tictoc2.peer[472] HopCount ETV
vector 473 Tictoc2.peer[473] HopCount ETV
vector 474 Tictoc2.peer[474] HopCount ETV
vector 475 Tictoc2.peer[475] HopCount ETV
vector 476 Tictoc2.peer[476] HopCount ETV
vector 477 Tictoc2.peer[477] HopCount ETV
vector 478 Tictoc2.peer[478] HopCount ETV
vector 479 Tictoc2.peer[479] HopCount ETV
vector 480 Tictoc2.peer[480] HopCount ETV
vector 481 Tictoc2.peer[481] HopCount ETV
vector 482 Tictoc2.peer[482] HopCount ETV
vector 483 Tictoc2.peer[483] HopCount ETV
vector 484 Tictoc2.peer[484] HopCount ETV
vector 485 Tictoc2.peer[485] HopCount ETV
vector 486 Tictoc2.peer[486] HopCount ETV
vector 487 Tictoc2.peer[487] HopCount ETV
vector 488 Tictoc2.peer[488] HopCount ETV
vector 489 Tictoc2.peer[489] HopCount ETV
vector 490 Tictoc2.peer[490] HopCount ETV
vector 491 Tictoc2.peer[491] HopCount ETV
vector 492 Tictoc2.peer[492] HopCount ETV
vector 493 Tictoc2.peer[493] HopCount ETV
vector 494 Tictoc2.peer[494] HopCount ETV
vector 495 Tictoc2.peer[495] HopCount ETV
vector 496 Tictoc2.peer[496] HopCount ETV
vector 497 Tictoc2.peer[497] HopCount ETV
vector 498 Tictoc2.peer[498] HopCount ETV
vector 499 Tictoc2.peer[499] HopCount ETV
0	9501	1.5	1
0	14486	2	2
0	18471	2.5	3
0	20971	3	4
0	23971	3.5	5
0	26471	4	6
0	28971	4.5	7
0	31471	5	8
0	34471	5.5	9
0	36971	6	10
0	39471	6.5	11
0	41971	7	12
0	44971	7.5	13
0	47471	8	14
0	49971	8.5	15
0	52471	9	16
0	55471	9.5	17
0	57995	10	18
0	60542	10.5	19
0	63159	11	20
0	66251	11.5	21
0	68821	12	22
0	71312	12.5	23
0	73744	13	24
0	76551	13.5	25
0	78932	14	26
0	81304	14.5	27
0	83652	15	28
0	86340	15.5	29
0	88546	16	30
0	90686	16.5	31
0	92731	17	32
0	95050	17.5	33
0	96931	18	34
0	98795	18.5	35
0	100590	19	36
0	102704	19.5	37
0	104453	20	38
0	106222	20.5	39
0	107936	21	40
0	109906	21.5	41
0	111475	22	42
0	113036	22.5	43
0	114498	23	44
0	116189	23.5	45
0	117518	24	46
0	118868	24.5	47
0	120116	25	48
0	121536	25.5	49
0	122639	26	50
0	123798	26.5	51
0	124879	27	52
0	126095	27.5	53
0	126990	28	54
0	127953	28.5	55
0	128716	29	56
0	129649	29.5	57
0	130240	30	58
0	130941	30.5	59
0	131246	31	60
0	131592	31.5	61
0	131853	32	62
0	132093	32.5	63
0	132328	33	64
0	132614	33.5	65
0	132855	34	66
0	133089	34.5	67
0	133327	35	68
0	133616	35.5	69
0	133852	36	70
0	134090	36.5	71
0	134327	37	72
0	134615	37.5	73
0	134850	38	74
0	135090	38.5	75
0	135327	39	76
0	135611	39.5	77
0	135854	40	78
0	136088	40.5	79
0	136324	41	80
0	136615	41.5	81
0	136849	42	82
0	137087	42.5	83
0	137326	43	84
0	137612	43.5	85
0	137849	44	86
0	138089	44.5	87
0	138324	45	88
0	138610	45.5	89
0	138851	46	90
0	139085	46.5	91
0	139323	47	92
0	139612	47.5	93
0	139848	48	94
0	140086	48.5	95
0	140323	49	96
0	140611	49.5	97
0	140846	50	98
0	141086	50.5	99
0	141323	51	100
1	9502	1.5	1
1	14487	2	2
1	18472	2.5	3
1	20972	3	4
1	23972	3.5	5
1	26472	4	6
1	28972	4.5	7
1	31472	5	8
1	34472	5.5	9
1	36972	6	10
1	39472	6.5	11
1	41972	7	12
1	44972	7.5	13
1	47472	8	14
1	49972	8.5	15
1	52472	9	16
1	55472	9.5	17
1	57996	10	18
1	60543	10.5	19
1	63160	11	20
1	66252	11.5	21
1	69322	12.1	22
1	72757	12.7	23
1	75582	13.3	24
1	78803	13.9	25
1	81301	14.5	26
1	84514	15.1	27
1	88463	15.9	28
1	90574	16.4	29
1	92642	16.9	30
1	94610	17.4	31
1	96847	17.9	32
2	9503	1.5	1
2	14488	2	2
2	18473	2.5	3
2	20973	3	4
2	23973	3.5	5
2	26473	4	6
2	28973	4.5	7
2	31473	5	8
2	34473	5.5	9
2	36973	6	10
2	39473	6.5	11
2	41973	7	12
2	44973	7.5	13
2	47473	8	14
2	49973	8.5	15
2	52473	9	16
2	55473	9.5	17
2	57997	10	18
2	60544	10.5	19
2	63161	11	20
2	66253	11.5	21
3	9504	1.5	1
3	14489	2	2
3	18474	2.5	3
3	20974	3	4
3	23974	3.5	5
3	26474	4	6
3	28974	4.5	7
3	31474	5	8
3	34474	5.5	9
3	36974	6	10
3	39474	6.5	11
3	41974	7	12
3	44974	7.5	13
3	47474	8	14
3	49974	8.5	15
3	52474	9	16
3	55474	9.5	17
3	57998	10	18
3	68819	12	19
3	71815	12.6	20
3	75120	13.2	21
3	77975	13.8	22
3	81148	14.4	23
3	83649	15	24
3	86804	15.6	25
3	89370	16.2	26
3	92276	16.8	27
3	94543	17.4	28
3	96926	18	29
3	99157	18.6	30
3	101598	19.2	31
3	103736	19.8	32
3	107842	20.9	33
3	109530	21.4	34
3	111383	21.9	35
3	112904	22.4	36
3	114390	22.9	37
3	115824	23.4	38
3	117402	23.9	39
3	118712	24.4	40
3	119987	24.9	41
3	121207	25.4	42
3	122527	25.9	43
3	123626	26.4	44
3	124731	26.9	45
3	125799	27.4	46
3	126875	27.9	47
4	9505	1.5	1
4	14490	2	2
4	18475	2.5	3
4	20975	3	4
4	23975	3.5	5
4	26475	4	6
4	28975	4.5	7
4	31475	5	8
4	34475	5.5	9
4	36975	6	10
4	39475	6.5	11
4	41975	7	12
4	44975	7.5	13
4	47475	8	14
4	49975	8.5	15
4	52475	9	16
4	55475	9.5	17
4	57999	10	18
4	68820	12	19
4	71816	12.6	20
4	75121	13.2	21
4	77976	13.8	22
4	81149	14.4	23
4	83650	15	24
4	88464	15.9	25
4	90575	16.4	26
4	92643	16.9	27
4	94611	17.4	28
4	96848	17.9	29
4	98687	18.4	30
4	100490	18.9	31
4	102273	19.4	32
4	104325	19.9	33
4	106060	20.4	34
4	107788	20.9	35
4	109477	21.4	36
4	111337	21.9	37
4	111394	21.9	37
4	112863	22.4	38
4	112914	22.4	38
4	114358	22.9	39
4	114400	22.9	39
4	115796	23.4	40
4	115834	23.4	40
4	117376	23.9	41
4	117412	23.9	41
5	9506	1.5	1
5	14491	2	2
5	18476	2.5	3
5	20976	3	4
5	23976	3.5	5
5	26476	4	6
5	28976	4.5	7
5	31476	5	8
5	34476	5.5	9
5	36976	6	10
5	39476	6.5	11
5	41976	7	12
5	44976	7.5	13
5	47476	8	14
5	49976	8.5	15
5	52476	9	16
5	55476	9.5	17
6	9507	1.5	1
6	14492	2	2
6	18477	2.5	3
6	20977	3	4
6	23977	3.5	5
6	26477	4	6
6	28977	4.5	7
6	31477	5	8
6	34477	5.5	9
6	36977	6	10
6	39477	6.5	11
6	41977	7	12
6	44977	7.5	13
6	47477	8	14
6	49977	8.5	15
6	52477	9	16
6	55477	9.5	17
7	9508	1.5	1
7	14493	2	2
7	18478	2.5	3
7	20978	3	4
7	23978	3.5	5
7	26478	4	6
7	28978	4.5	7
7	31478	5	8
7	34478	5.5	9
7	36978	6	10
7	39478	6.5	11
7	41978	7	12
7	44978	7.5	13
7	47478	8	14
7	49978	8.5	15
7	52478	9	16
7	55478	9.5	17
8	9509	1.5	1
8	14494	2	2
8	18479	2.5	3
8	20979	3	4
8	23979	3.5	5
8	26479	4	6
8	28979	4.5	7
8	31479	5	8
8	34479	5.5	9
8	36979	6	10
8	39479	6.5	11
8	41979	7	12
8	44979	7.5	13
8	47479	8	14
8	49979	8.5	15
8	52479	9	16
8	55479	9.5	17
8	58003	10	18
8	60545	10.5	19
8	63162	11	20
8	66254	11.5	21
8	68823	12	22
8	71313	12.5	23
8	73745	13	24
8	76552	13.5	25
8	78933	14	26
8	81305	14.5	27
8	83653	15	28
8	86341	15.5	29
9	9510	1.5	1
9	14495	2	2
9	18480	2.5	3
9	20980	3	4
9	23980	3.5	5
9	26480	4	6
9	28980	4.5	7
9	31480	5	8
9	34480	5.5	9
9	36980	6	10
9	39480	6.5	11
9	41980	7	12
9	44980	7.5	13
9	47480	8	14
9	49980	8.5	15
9	52480	9	16
9	55480	9.5	17
9	58004	10	18
9	60546	10.5	19
10	9511	1.5	1
10	14496	2	2
10	18481	2.5	3
10	20981	3	4
10	23981	3.5	5
10	26481	4	6
10	28981	4.5	7
10	31481	5	8
10	34481	5.5	9
10	36981	6	10
10	39481	6.5	11
10	41981	7	12
10	44981	7.5	13
10	47481	8	14
10	49981	8.5	15
10	52481	9	16
10	55481	9.5	17
10	58005	10	18
10	60547	10.5	19
10	63164	11	20
10	66255	11.5	21
10	68824	12	22
10	71314	12.5	23
10	73746	13	24
10	76553	13.5	25
10	78934	14	26
10	81306	14.5	27
10	83654	15	28
10	86342	15.5	29
10	88548	16	30
10	90687	16.5	31
10	92732	17	32
10	95051	17.5	33
10	96932	18	34
10	98796	18.5	35
10	100591	19	36
10	102705	19.5	37
10	104454	20	38
10	106223	20.5	39
10	107937	21	40
10	109907	21.5	41
10	111476	22	42
10	113037	22.5	43
10	114499	23	44
10	116190	23.5	45
10	117519	24	46
10	118869	24.5	47
10	120117	25	48
10	121537	25.5	49
10	122640	26	50
10	123799	26.5	51
10	124880	27	52
10	126096	27.5	53
10	126991	28	54
10	127954	28.5	55
10	128717	29	56
10	129650	29.5	57
10	130241	30	58
10	130942	30.5	59
10	131247	31	60
10	131593	31.5	61
10	131854	32	62
10	132094	32.5	63
10	132329	33	64
10	132615	33.5	65
10	132856	34	66
10	133090	34.5	67
10	133328	35	68
10	133617	35.5	69
10	133853	36	70
10	134091	36.5	71
10	134328	37	72
10	134616	37.5	73
10	134851	38	74
10	135091	38.5	75
10	135328	39	76
10	135612	39.5	77
10	135855	40	78
10	136089	40.5	79
10	136325	41	80
10	136616	41.5	81
10	136850	42	82
10	137088	42.5	83
10	137327	43	84
10	137613	43.5	85
10	137850	44	86
10	138090	44.5	87
10	138325	45	88
10	138611	45.5	89
10	138852	46	90
10	139086	46.5	91
10	139324	47	92
10	139613	47.5	93
10	139849	48	94
10	140087	48.5	95
10	140324	49	96
10	140612	49.5	97
10	140847	50	98
10	141087	50.5	99
10	141324	51	100
11	9512	1.5	1
11	14497	2	2
11	18482	2.5	3
11	20982	3	4
11	23982	3.5	5
11	26482	4	6
11	28982	4.5	7
11	31482	5	8
11	34482	5.5	9
11	36982	6	10
11	39482	6.5	11
11	41982	7	12
11	44982	7.5	13
11	47482	8	14
11	49982	8.5	15
11	52482	9	16
11	55482	9.5	17
11	58006	10	18
11	60548	10.5	19
11	63165	11	20
11	66256	11.5	21
11	68825	12	22
11	71315	12.5	23
11	73747	13	24
11	76554	13.5	25
11	78935	14	26
11	83555	14.9	27
11	85850	15.4	28
11	88444	15.9	29
11	90555	16.4	30
11	92623	16.9	31
11	94592	17.4	32
11	96829	17.9	33
11	98668	18.4	34
11	100472	18.9	35
11	102256	19.4	36
11	104312	19.9	37
11	106048	20.4	38
11	107776	20.9	39
11	109465	21.4	40
11	111325	21.9	41
11	112851	22.4	42
11	114346	22.9	43
11	117428	23.9	44
11	118735	24.4	45
11	120007	24.9	46
11	121225	25.4	47
11	122540	25.9	48
11	123638	26.4	49
11	124743	26.9	50
11	125811	27.4	51
11	126884	27.9	52
11	127781	28.4	53
11	128613	28.9	54
11	129415	29.4	55
11	130149	29.9	56
12	9513	1.5	1
12	14498	2	2
12	18483	2.5	3
12	20983	3	4
12	23983	3.5	5
12	26483	4	6
12	28983	4.5	7
12	31483	5	8
12	34483	5.5	9
12	36983	6	10
12	39483	6.5	11
12	41983	7	12
12	44983	7.5	13
12	47483	8	14
12	49983	8.5	15
12	52483	9	16
12	55483	9.5	17
12	58007	10	18
12	60549	10.5	19
12	63166	11	20
12	66257	11.5	21
12	68826	12	22
12	71316	12.5	23
12	73748	13	24
12	76555	13.5	25
12	78936	14	26
12	81307	14.5	27
12	83655	15	28
12	86343	15.5	29
12	88549	16	30
12	90688	16.5	31
12	92733	17	32
12	95052	17.5	33
13	9514	1.5	1
13	14499	2	2
13	18484	2.5	3
13	20984	3	4
13	23984	3.5	5
13	26484	4	6
13	28984	4.5	7
13	31484	5	8
13	34484	5.5	9
13	36984	6	10
13	39484	6.5	11
13	41984	7	12
13	44984	7.5	13
13	47484	8	14
13	49984	8.5	15
13	52484	9	16
13	55484	9.5	17
13	58008	10	18
13	60550	10.5	19
13	63167	11	20
13	66258	11.5	21
13	68827	12	22
13	71317	12.5	23
13	73749	13	24
13	76556	13.5	25
13	78937	14	26
13	81308	14.5	27
13	83656	15	28
13	86344	15.5	29
13	88550	16	30
13	90689	16.5	31
13	92734	17	32
13	95053	17.5	33
13	96934	18	34
13	100527	18.9	35
13	102307	19.4	36
13	104356	19.9	37
14	9515	1.5	1
14	14500	2	2
14	18485	2.5	3
14	20985	3	4
14	23985	3.5	5
14	26485	4	6