version 3
run Tictoc2-0-20240120-23:21:19-17554
attr configname Tictoc2
attr datetime 20240120-23:21:19
attr datetimef 20240120-232119
attr experiment Tictoc2
attr inifile omnetpp.ini
attr iterationvars ""
attr iterationvarsd ""
attr iterationvarsf ""
attr measurement ""
attr network Tictoc2
attr processid 17554
attr repetition 0
attr replication #0
attr resultdir results
attr runnumber 0
attr seedset 0
config network Tictoc2

vector 0 Tictoc2.peer[0] HopCount ETV
vector 1 Tictoc2.peer[1] HopCount ETV
vector 2 Tictoc2.peer[2] HopCount ETV
0	70	1.5	1
0	97	2	2
0	118	2.5	3
0	133	3	4
0	148	3.5	5
0	163	4	6
0	178	4.5	7
0	194	5	8
0	214	5.5	9
0	234	6	10
0	254	6.5	11
0	271	7	12
0	286	7.5	13
0	301	8	14
0	316	8.5	15
0	331	9	16
0	346	9.5	17
0	361	10	18
0	376	10.5	19
0	391	11	20
0	406	11.5	21
0	421	12	22
0	436	12.5	23
0	451	13	24
0	466	13.5	25
0	481	14	26
0	496	14.5	27
0	511	15	28
0	526	15.5	29
0	541	16	30
0	556	16.5	31
0	571	17	32
0	586	17.5	33
0	601	18	34
0	616	18.5	35
0	631	19	36
0	646	19.5	37
0	661	20	38
0	676	20.5	39
0	691	21	40
0	706	21.5	41
0	721	22	42
0	736	22.5	43
0	751	23	44
0	766	23.5	45
0	781	24	46
0	796	24.5	47
0	811	25	48
0	826	25.5	49
0	841	26	50
0	856	26.5	51
0	871	27	52
0	886	27.5	53
0	901	28	54
0	916	28.5	55
0	931	29	56
0	946	29.5	57
0	961	30	58
0	976	30.5	59
0	991	31	60
0	1006	31.5	61
0	1021	32	62
0	1036	32.5	63
0	1051	33	64
0	1066	33.5	65
0	1081	34	66
0	1096	34.5	67
0	1111	35	68
0	1126	35.5	69
0	1141	36	70
0	1156	36.5	71
0	1171	37	72
0	1186	37.5	73
0	1201	38	74
0	1216	38.5	75
0	1231	39	76
0	1246	39.5	77
0	1262	40	78
0	1285	40.5	79
0	1310	41	80
0	1327	41.5	81
0	1342	42	82
0	1357	42.5	83
0	1372	43	84
0	1387	43.5	85
0	1402	44	86
0	1417	44.5	87
0	1432	45	88
0	1447	45.5	89
0	1462	46	90
0	1477	46.5	91
0	1492	47	92
0	1507	47.5	93
0	1522	48	94
0	1537	48.5	95
0	1552	49	96
0	1567	49.5	97
0	1582	50	98
0	1597	50.5	99
0	1612	51	100
1	71	1.5	1
1	98	2	2
1	119	2.5	3
1	134	3	4
1	149	3.5	5
1	164	4	6
1	179	4.5	7
1	195	5	8
1	215	5.5	9
1	235	6	10
1	255	6.5	11
1	272	7	12
1	287	7.5	13
1	302	8	14
1	317	8.5	15
1	332	9	16
1	347	9.5	17
1	362	10	18
1	377	10.5	19
1	392	11	20
1	407	11.5	21
1	422	12	22
1	437	12.5	23
1	452	13	24
1	467	13.5	25
1	482	14	26
1	497	14.5	27
1	512	15	28
1	527	15.5	29
1	542	16	30
1	557	16.5	31
1	572	17	32
1	587	17.5	33
1	602	18	34
1	617	18.5	35
1	632	19	36
1	647	19.5	37
1	662	20	38
1	677	20.5	39
1	692	21	40
1	707	21.5	41
1	722	22	42
1	737	22.5	43
1	752	23	44
1	767	23.5	45
1	782	24	46
1	797	24.5	47
1	812	25	48
1	827	25.5	49
1	842	26	50
1	857	26.5	51
1	872	27	52
1	887	27.5	53
1	902	28	54
1	917	28.5	55
1	932	29	56
1	947	29.5	57
1	962	30	58
1	977	30.5	59
1	992	31	60
1	1007	31.5	61
1	1022	32	62
1	1037	32.5	63
1	1052	33	64
1	1067	33.5	65
1	1082	34	66
1	1097	34.5	67
1	1112	35	68
1	1127	35.5	69
1	1142	36	70
1	1157	36.5	71
1	1172	37	72
1	1187	37.5	73
1	1202	38	74
1	1217	38.5	75
1	1232	39	76
1	1247	39.5	77
1	1263	40	78
1	1286	40.5	79
1	1311	41	80
1	1328	41.5	81
1	1343	42	82
1	1358	42.5	83
1	1373	43	84
1	1388	43.5	85
1	1403	44	86
1	1418	44.5	87
1	1433	45	88
1	1448	45.5	89
1	1463	46	90
1	1478	46.5	91
1	1493	47	92
1	1508	47.5	93
1	1523	48	94
1	1538	48.5	95
1	1553	49	96
1	1568	49.5	97
1	1583	50	98
1	1598	50.5	99
1	1613	51	100
2	72	1.5	1
2	99	2	2
2	120	2.5	3
2	135	3	4
2	150	3.5	5
2	165	4	6
2	180	4.5	7
2	196	5	8
2	229	5.9	9
2	249	6.4	10
2	267	6.9	11
2	282	7.4	12
2	297	7.9	13
2	312	8.4	14
2	327	8.9	15
2	342	9.4	16
2	357	9.9	17
2	372	10.4	18
2	387	10.9	19
2	402	11.4	20
2	417	11.9	21
2	432	12.4	22
2	447	12.9	23
2	462	13.4	24
2	477	13.9	25
2	492	14.4	26
2	507	14.9	27
2	522	15.4	28
2	537	15.9	29
2	552	16.4	30
2	567	16.9	31
2	582	17.4	32
2	597	17.9	33
2	612	18.4	34
2	627	18.9	35
2	642	19.4	36
2	657	19.9	37
2	672	20.4	38
2	687	20.9	39
2	702	21.4	40
2	717	21.9	41
2	732	22.4	42
2	747	22.9	43
2	762	23.4	44
2	777	23.9	45
2	792	24.4	46
2	807	24.9	47
2	822	25.4	48
2	837	25.9	49
2	852	26.4	50
2	867	26.9	51
2	882	27.4	52
2	897	27.9	53
2	912	28.4	54
2	927	28.9	55
2	942	29.4	56
2	957	29.9	57
2	972	30.4	58
2	987	30.9	59
2	1002	31.4	60
2	1017	31.9	61
2	1032	32.4	62
2	1047	32.9	63
2	1062	33.4	64
2	1077	33.9	65
2	1092	34.4	66
2	1107	34.9	67
2	1122	35.4	68
2	1137	35.9	69
2	1152	36.4	70
2	1167	36.9	71
2	1182	37.4	72
2	1197	37.9	73
2	1212	38.4	74
2	1227	38.9	75
2	1242	39.4	76
2	1257	39.9	77
2	1279	40.4	78
2	1304	40.9	79
2	1323	41.4	80
2	1338	41.9	81
2	1353	42.4	82
2	1368	42.9	83
2	1383	43.4	84
2	1398	43.9	85
2	1413	44.4	86
2	1428	44.9	87
2	1443	45.4	88
2	1458	45.9	89
2	1473	46.4	90
2	1488	46.9	91
2	1503	47.4	92
2	1518	47.9	93
2	1533	48.4	94
2	1548	48.9	95
2	1563	49.4	96
2	1578	49.9	97
2	1593	50.4	98
2	1608	50.9	99
2	1621	51.4	100

