version 3
run Tictoc2-0-20240127-22:48:38-16886
attr configname Tictoc2
attr datetime 20240127-22:48:38
attr datetimef 20240127-224838
attr experiment Tictoc2
attr inifile omnetpp.ini
attr iterationvars ""
attr iterationvarsd ""
attr iterationvarsf ""
attr measurement ""
attr network Tictoc2
attr processid 16886
attr repetition 0
attr replication #0
attr resultdir results
attr runnumber 0
attr seedset 0
config network Tictoc2

vector 0 Tictoc2.peer[0] HopCount ETV
vector 1 Tictoc2.peer[1] HopCount ETV
vector 2 Tictoc2.peer[2] HopCount ETV
vector 3 Tictoc2.peer[3] HopCount ETV
vector 4 Tictoc2.peer[4] HopCount ETV
vector 5 Tictoc2.peer[5] HopCount ETV
vector 6 Tictoc2.peer[6] HopCount ETV
vector 7 Tictoc2.peer[7] HopCount ETV
vector 8 Tictoc2.peer[8] HopCount ETV
vector 9 Tictoc2.peer[9] HopCount ETV
vector 10 Tictoc2.peer[10] HopCount ETV
vector 11 Tictoc2.peer[11] HopCount ETV
vector 12 Tictoc2.peer[12] HopCount ETV
vector 13 Tictoc2.peer[13] HopCount ETV
vector 14 Tictoc2.peer[14] HopCount ETV
vector 15 Tictoc2.peer[15] HopCount ETV
vector 16 Tictoc2.peer[16] HopCount ETV
vector 17 Tictoc2.peer[17] HopCount ETV
vector 18 Tictoc2.peer[18] HopCount ETV
vector 19 Tictoc2.peer[19] HopCount ETV
vector 20 Tictoc2.peer[20] HopCount ETV
vector 21 Tictoc2.peer[21] HopCount ETV
vector 22 Tictoc2.peer[22] HopCount ETV
vector 23 Tictoc2.peer[23] HopCount ETV
vector 24 Tictoc2.peer[24] HopCount ETV
vector 25 Tictoc2.peer[25] HopCount ETV
vector 26 Tictoc2.peer[26] HopCount ETV
vector 27 Tictoc2.peer[27] HopCount ETV
vector 28 Tictoc2.peer[28] HopCount ETV
vector 29 Tictoc2.peer[29] HopCount ETV
vector 30 Tictoc2.peer[30] HopCount ETV
vector 31 Tictoc2.peer[31] HopCount ETV
vector 32 Tictoc2.peer[32] HopCount ETV
vector 33 Tictoc2.peer[33] HopCount ETV
vector 34 Tictoc2.peer[34] HopCount ETV
vector 35 Tictoc2.peer[35] HopCount ETV
vector 36 Tictoc2.peer[36] HopCount ETV
vector 37 Tictoc2.peer[37] HopCount ETV
vector 38 Tictoc2.peer[38] HopCount ETV
vector 39 Tictoc2.peer[39] HopCount ETV
vector 40 Tictoc2.peer[40] HopCount ETV
vector 41 Tictoc2.peer[41] HopCount ETV
vector 42 Tictoc2.peer[42] HopCount ETV
vector 43 Tictoc2.peer[43] HopCount ETV
vector 44 Tictoc2.peer[44] HopCount ETV
vector 45 Tictoc2.peer[45] HopCount ETV
vector 46 Tictoc2.peer[46] HopCount ETV
vector 47 Tictoc2.peer[47] HopCount ETV
vector 48 Tictoc2.peer[48] HopCount ETV
vector 49 Tictoc2.peer[49] HopCount ETV
vector 50 Tictoc2.peer[50] HopCount ETV
vector 51 Tictoc2.peer[51] HopCount ETV
vector 52 Tictoc2.peer[52] HopCount ETV
vector 53 Tictoc2.peer[53] HopCount ETV
vector 54 Tictoc2.peer[54] HopCount ETV
vector 55 Tictoc2.peer[55] HopCount ETV
vector 56 Tictoc2.peer[56] HopCount ETV
vector 57 Tictoc2.peer[57] HopCount ETV
vector 58 Tictoc2.peer[58] HopCount ETV
vector 59 Tictoc2.peer[59] HopCount ETV
vector 60 Tictoc2.peer[60] HopCount ETV
vector 61 Tictoc2.peer[61] HopCount ETV
vector 62 Tictoc2.peer[62] HopCount ETV
vector 63 Tictoc2.peer[63] HopCount ETV
vector 64 Tictoc2.peer[64] HopCount ETV
vector 65 Tictoc2.peer[65] HopCount ETV
vector 66 Tictoc2.peer[66] HopCount ETV
vector 67 Tictoc2.peer[67] HopCount ETV
vector 68 Tictoc2.peer[68] HopCount ETV
vector 69 Tictoc2.peer[69] HopCount ETV
vector 70 Tictoc2.peer[70] HopCount ETV
vector 71 Tictoc2.peer[71] HopCount ETV
vector 72 Tictoc2.peer[72] HopCount ETV
vector 73 Tictoc2.peer[73] HopCount ETV
vector 74 Tictoc2.peer[74] HopCount ETV
vector 75 Tictoc2.peer[75] HopCount ETV
vector 76 Tictoc2.peer[76] HopCount ETV
vector 77 Tictoc2.peer[77] HopCount ETV
vector 78 Tictoc2.peer[78] HopCount ETV
vector 79 Tictoc2.peer[79] HopCount ETV
vector 80 Tictoc2.peer[80] HopCount ETV
vector 81 Tictoc2.peer[81] HopCount ETV
vector 82 Tictoc2.peer[82] HopCount ETV
vector 83 Tictoc2.peer[83] HopCount ETV
vector 84 Tictoc2.peer[84] HopCount ETV
vector 85 Tictoc2.peer[85] HopCount ETV
vector 86 Tictoc2.peer[86] HopCount ETV
vector 87 Tictoc2.peer[87] HopCount ETV
vector 88 Tictoc2.peer[88] HopCount ETV
vector 89 Tictoc2.peer[89] HopCount ETV
vector 90 Tictoc2.peer[90] HopCount ETV
vector 91 Tictoc2.peer[91] HopCount ETV
vector 92 Tictoc2.peer[92] HopCount ETV
vector 93 Tictoc2.peer[93] HopCount ETV
vector 94 Tictoc2.peer[94] HopCount ETV
vector 95 Tictoc2.peer[95] HopCount ETV
vector 96 Tictoc2.peer[96] HopCount ETV
vector 97 Tictoc2.peer[97] HopCount ETV
vector 98 Tictoc2.peer[98] HopCount ETV
vector 99 Tictoc2.peer[99] HopCount ETV
vector 100 Tictoc2.peer[100] HopCount ETV
vector 101 Tictoc2.peer[101] HopCount ETV
vector 102 Tictoc2.peer[102] HopCount ETV
vector 103 Tictoc2.peer[103] HopCount ETV
vector 104 Tictoc2.peer[104] HopCount ETV
vector 105 Tictoc2.peer[105] HopCount ETV
vector 106 Tictoc2.peer[106] HopCount ETV
vector 107 Tictoc2.peer[107] HopCount ETV
vector 108 Tictoc2.peer[108] HopCount ETV
vector 109 Tictoc2.peer[109] HopCount ETV
vector 110 Tictoc2.peer[110] HopCount ETV
vector 111 Tictoc2.peer[111] HopCount ETV
vector 112 Tictoc2.peer[112] HopCount ETV
vector 113 Tictoc2.peer[113] HopCount ETV
vector 114 Tictoc2.peer[114] HopCount ETV
vector 115 Tictoc2.peer[115] HopCount ETV
vector 116 Tictoc2.peer[116] HopCount ETV
vector 117 Tictoc2.peer[117] HopCount ETV
vector 118 Tictoc2.peer[118] HopCount ETV
vector 119 Tictoc2.peer[119] HopCount ETV
vector 120 Tictoc2.peer[120] HopCount ETV
vector 121 Tictoc2.peer[121] HopCount ETV
vector 122 Tictoc2.peer[122] HopCount ETV
vector 123 Tictoc2.peer[123] HopCount ETV
vector 124 Tictoc2.peer[124] HopCount ETV
vector 125 Tictoc2.peer[125] HopCount ETV
vector 126 Tictoc2.peer[126] HopCount ETV
vector 127 Tictoc2.peer[127] HopCount ETV
vector 128 Tictoc2.peer[128] HopCount ETV
vector 129 Tictoc2.peer[129] HopCount ETV
vector 130 Tictoc2.peer[130] HopCount ETV
vector 131 Tictoc2.peer[131] HopCount ETV
vector 132 Tictoc2.peer[132] HopCount ETV
vector 133 Tictoc2.peer[133] HopCount ETV
vector 134 Tictoc2.peer[134] HopCount ETV
vector 135 Tictoc2.peer[135] HopCount ETV
vector 136 Tictoc2.peer[136] HopCount ETV
vector 137 Tictoc2.peer[137] HopCount ETV
vector 138 Tictoc2.peer[138] HopCount ETV
vector 139 Tictoc2.peer[139] HopCount ETV
vector 140 Tictoc2.peer[140] HopCount ETV
vector 141 Tictoc2.peer[141] HopCount ETV
vector 142 Tictoc2.peer[142] HopCount ETV
vector 143 Tictoc2.peer[143] HopCount ETV
vector 144 Tictoc2.peer[144] HopCount ETV
vector 145 Tictoc2.peer[145] HopCount ETV
vector 146 Tictoc2.peer[146] HopCount ETV
vector 147 Tictoc2.peer[147] HopCount ETV
vector 148 Tictoc2.peer[148] HopCount ETV
vector 149 Tictoc2.peer[149] HopCount ETV
vector 150 Tictoc2.peer[150] HopCount ETV
vector 151 Tictoc2.peer[151] HopCount ETV
vector 152 Tictoc2.peer[152] HopCount ETV
vector 153 Tictoc2.peer[153] HopCount ETV
vector 154 Tictoc2.peer[154] HopCount ETV
vector 155 Tictoc2.peer[155] HopCount ETV
vector 156 Tictoc2.peer[156] HopCount ETV
vector 157 Tictoc2.peer[157] HopCount ETV
vector 158 Tictoc2.peer[158] HopCount ETV
vector 159 Tictoc2.peer[159] HopCount ETV
vector 160 Tictoc2.peer[160] HopCount ETV
vector 161 Tictoc2.peer[161] HopCount ETV
vector 162 Tictoc2.peer[162] HopCount ETV
vector 163 Tictoc2.peer[163] HopCount ETV
vector 164 Tictoc2.peer[164] HopCount ETV
vector 165 Tictoc2.peer[165] HopCount ETV
vector 166 Tictoc2.peer[166] HopCount ETV
vector 167 Tictoc2.peer[167] HopCount ETV
vector 168 Tictoc2.peer[168] HopCount ETV
vector 169 Tictoc2.peer[169] HopCount ETV
vector 170 Tictoc2.peer[170] HopCount ETV
vector 171 Tictoc2.peer[171] HopCount ETV
vector 172 Tictoc2.peer[172] HopCount ETV
vector 173 Tictoc2.peer[173] HopCount ETV
vector 174 Tictoc2.peer[174] HopCount ETV
vector 175 Tictoc2.peer[175] HopCount ETV
vector 176 Tictoc2.peer[176] HopCount ETV
vector 177 Tictoc2.peer[177] HopCount ETV
vector 178 Tictoc2.peer[178] HopCount ETV
vector 179 Tictoc2.peer[179] HopCount ETV
vector 180 Tictoc2.peer[180] HopCount ETV
vector 181 Tictoc2.peer[181] HopCount ETV
vector 182 Tictoc2.peer[182] HopCount ETV
vector 183 Tictoc2.peer[183] HopCount ETV
vector 184 Tictoc2.peer[184] HopCount ETV
vector 185 Tictoc2.peer[185] HopCount ETV
vector 186 Tictoc2.peer[186] HopCount ETV
vector 187 Tictoc2.peer[187] HopCount ETV
vector 188 Tictoc2.peer[188] HopCount ETV
vector 189 Tictoc2.peer[189] HopCount ETV
vector 190 Tictoc2.peer[190] HopCount ETV
vector 191 Tictoc2.peer[191] HopCount ETV
vector 192 Tictoc2.peer[192] HopCount ETV
vector 193 Tictoc2.peer[193] HopCount ETV
vector 194 Tictoc2.peer[194] HopCount ETV
vector 195 Tictoc2.peer[195] HopCount ETV
vector 196 Tictoc2.peer[196] HopCount ETV
vector 197 Tictoc2.peer[197] HopCount ETV
vector 198 Tictoc2.peer[198] HopCount ETV
vector 199 Tictoc2.peer[199] HopCount ETV
vector 200 Tictoc2.peer[200] HopCount ETV
vector 201 Tictoc2.peer[201] HopCount ETV
vector 202 Tictoc2.peer[202] HopCount ETV
vector 203 Tictoc2.peer[203] HopCount ETV
vector 204 Tictoc2.peer[204] HopCount ETV
vector 205 Tictoc2.peer[205] HopCount ETV
vector 206 Tictoc2.peer[206] HopCount ETV
vector 207 Tictoc2.peer[207] HopCount ETV
vector 208 Tictoc2.peer[208] HopCount ETV
vector 209 Tictoc2.peer[209] HopCount ETV
vector 210 Tictoc2.peer[210] HopCount ETV
vector 211 Tictoc2.peer[211] HopCount ETV
vector 212 Tictoc2.peer[212] HopCount ETV
vector 213 Tictoc2.peer[213] HopCount ETV
vector 214 Tictoc2.peer[214] HopCount ETV
vector 215 Tictoc2.peer[215] HopCount ETV
vector 216 Tictoc2.peer[216] HopCount ETV
vector 217 Tictoc2.peer[217] HopCount ETV
vector 218 Tictoc2.peer[218] HopCount ETV
vector 219 Tictoc2.peer[219] HopCount ETV
vector 220 Tictoc2.peer[220] HopCount ETV
vector 221 Tictoc2.peer[221] HopCount ETV
vector 222 Tictoc2.peer[222] HopCount ETV
vector 223 Tictoc2.peer[223] HopCount ETV
vector 224 Tictoc2.peer[224] HopCount ETV
vector 225 Tictoc2.peer[225] HopCount ETV
vector 226 Tictoc2.peer[226] HopCount ETV
vector 227 Tictoc2.peer[227] HopCount ETV
vector 228 Tictoc2.peer[228] HopCount ETV
vector 229 Tictoc2.peer[229] HopCount ETV
vector 230 Tictoc2.peer[230] HopCount ETV
vector 231 Tictoc2.peer[231] HopCount ETV
vector 232 Tictoc2.peer[232] HopCount ETV
vector 233 Tictoc2.peer[233] HopCount ETV
vector 234 Tictoc2.peer[234] HopCount ETV
vector 235 Tictoc2.peer[235] HopCount ETV
vector 236 Tictoc2.peer[236] HopCount ETV
vector 237 Tictoc2.peer[237] HopCount ETV
vector 238 Tictoc2.peer[238] HopCount ETV
vector 239 Tictoc2.peer[239] HopCount ETV
vector 240 Tictoc2.peer[240] HopCount ETV
vector 241 Tictoc2.peer[241] HopCount ETV
vector 242 Tictoc2.peer[242] HopCount ETV
vector 243 Tictoc2.peer[243] HopCount ETV
vector 244 Tictoc2.peer[244] HopCount ETV
vector 245 Tictoc2.peer[245] HopCount ETV
vector 246 Tictoc2.peer[246] HopCount ETV
vector 247 Tictoc2.peer[247] HopCount ETV
vector 248 Tictoc2.peer[248] HopCount ETV
vector 249 Tictoc2.peer[249] HopCount ETV
vector 250 Tictoc2.peer[250] HopCount ETV
vector 251 Tictoc2.peer[251] HopCount ETV
vector 252 Tictoc2.peer[252] HopCount ETV
vector 253 Tictoc2.peer[253] HopCount ETV
vector 254 Tictoc2.peer[254] HopCount ETV
vector 255 Tictoc2.peer[255] HopCount ETV
vector 256 Tictoc2.peer[256] HopCount ETV
vector 257 Tictoc2.peer[257] HopCount ETV
vector 258 Tictoc2.peer[258] HopCount ETV
vector 259 Tictoc2.peer[259] HopCount ETV
vector 260 Tictoc2.peer[260] HopCount ETV
vector 261 Tictoc2.peer[261] HopCount ETV
vector 262 Tictoc2.peer[262] HopCount ETV
vector 263 Tictoc2.peer[263] HopCount ETV
vector 264 Tictoc2.peer[264] HopCount ETV
vector 265 Tictoc2.peer[265] HopCount ETV
vector 266 Tictoc2.peer[266] HopCount ETV
vector 267 Tictoc2.peer[267] HopCount ETV
vector 268 Tictoc2.peer[268] HopCount ETV
vector 269 Tictoc2.peer[269] HopCount ETV
vector 270 Tictoc2.peer[270] HopCount ETV
vector 271 Tictoc2.peer[271] HopCount ETV
vector 272 Tictoc2.peer[272] HopCount ETV
vector 273 Tictoc2.peer[273] HopCount ETV
vector 274 Tictoc2.peer[274] HopCount ETV
vector 275 Tictoc2.peer[275] HopCount ETV
vector 276 Tictoc2.peer[276] HopCount ETV
vector 277 Tictoc2.peer[277] HopCount ETV
vector 278 Tictoc2.peer[278] HopCount ETV
vector 279 Tictoc2.peer[279] HopCount ETV
vector 280 Tictoc2.peer[280] HopCount ETV
vector 281 Tictoc2.peer[281] HopCount ETV
vector 282 Tictoc2.peer[282] HopCount ETV
vector 283 Tictoc2.peer[283] HopCount ETV
vector 284 Tictoc2.peer[284] HopCount ETV
vector 285 Tictoc2.peer[285] HopCount ETV
vector 286 Tictoc2.peer[286] HopCount ETV
vector 287 Tictoc2.peer[287] HopCount ETV
vector 288 Tictoc2.peer[288] HopCount ETV
vector 289 Tictoc2.peer[289] HopCount ETV
vector 290 Tictoc2.peer[290] HopCount ETV
vector 291 Tictoc2.peer[291] HopCount ETV
vector 292 Tictoc2.peer[292] HopCount ETV
vector 293 Tictoc2.peer[293] HopCount ETV
vector 294 Tictoc2.peer[294] HopCount ETV
vector 295 Tictoc2.peer[295] HopCount ETV
vector 296 Tictoc2.peer[296] HopCount ETV
vector 297 Tictoc2.peer[297] HopCount ETV
vector 298 Tictoc2.peer[298] HopCount ETV
vector 299 Tictoc2.peer[299] HopCount ETV
vector 300 Tictoc2.peer[300] HopCount ETV
vector 301 Tictoc2.peer[301] HopCount ETV
vector 302 Tictoc2.peer[302] HopCount ETV
vector 303 Tictoc2.peer[303] HopCount ETV
vector 304 Tictoc2.peer[304] HopCount ETV
vector 305 Tictoc2.peer[305] HopCount ETV
vector 306 Tictoc2.peer[306] HopCount ETV
vector 307 Tictoc2.peer[307] HopCount ETV
vector 308 Tictoc2.peer[308] HopCount ETV
vector 309 Tictoc2.peer[309] HopCount ETV
vector 310 Tictoc2.peer[310] HopCount ETV
vector 311 Tictoc2.peer[311] HopCount ETV
vector 312 Tictoc2.peer[312] HopCount ETV
vector 313 Tictoc2.peer[313] HopCount ETV
vector 314 Tictoc2.peer[314] HopCount ETV
vector 315 Tictoc2.peer[315] HopCount ETV
vector 316 Tictoc2.peer[316] HopCount ETV
vector 317 Tictoc2.peer[317] HopCount ETV
vector 318 Tictoc2.peer[318] HopCount ETV
vector 319 Tictoc2.peer[319] HopCount ETV
vector 320 Tictoc2.peer[320] HopCount ETV
vector 321 Tictoc2.peer[321] HopCount ETV
vector 322 Tictoc2.peer[322] HopCount ETV
vector 323 Tictoc2.peer[323] HopCount ETV
vector 324 Tictoc2.peer[324] HopCount ETV
vector 325 Tictoc2.peer[325] HopCount ETV
vector 326 Tictoc2.peer[326] HopCount ETV
vector 327 Tictoc2.peer[327] HopCount ETV
vector 328 Tictoc2.peer[328] HopCount ETV
vector 329 Tictoc2.peer[329] HopCount ETV
vector 330 Tictoc2.peer[330] HopCount ETV
vector 331 Tictoc2.peer[331] HopCount ETV
vector 332 Tictoc2.peer[332] HopCount ETV
vector 333 Tictoc2.peer[333] HopCount ETV
vector 334 Tictoc2.peer[334] HopCount ETV
vector 335 Tictoc2.peer[335] HopCount ETV
vector 336 Tictoc2.peer[336] HopCount ETV
vector 337 Tictoc2.peer[337] HopCount ETV
vector 338 Tictoc2.peer[338] HopCount ETV
vector 339 Tictoc2.peer[339] HopCount ETV
vector 340 Tictoc2.peer[340] HopCount ETV
vector 341 Tictoc2.peer[341] HopCount ETV
vector 342 Tictoc2.peer[342] HopCount ETV
vector 343 Tictoc2.peer[343] HopCount ETV
vector 344 Tictoc2.peer[344] HopCount ETV
vector 345 Tictoc2.peer[345] HopCount ETV
vector 346 Tictoc2.peer[346] HopCount ETV
vector 347 Tictoc2.peer[347] HopCount ETV
vector 348 Tictoc2.peer[348] HopCount ETV
vector 349 Tictoc2.peer[349] HopCount ETV
vector 350 Tictoc2.peer[350] HopCount ETV
vector 351 Tictoc2.peer[351] HopCount ETV
vector 352 Tictoc2.peer[352] HopCount ETV
vector 353 Tictoc2.peer[353] HopCount ETV
vector 354 Tictoc2.peer[354] HopCount ETV
vector 355 Tictoc2.peer[355] HopCount ETV
vector 356 Tictoc2.peer[356] HopCount ETV
vector 357 Tictoc2.peer[357] HopCount ETV
vector 358 Tictoc2.peer[358] HopCount ETV
vector 359 Tictoc2.peer[359] HopCount ETV
vector 360 Tictoc2.peer[360] HopCount ETV
vector 361 Tictoc2.peer[361] HopCount ETV
vector 362 Tictoc2.peer[362] HopCount ETV
vector 363 Tictoc2.peer[363] HopCount ETV
vector 364 Tictoc2.peer[364] HopCount ETV
vector 365 Tictoc2.peer[365] HopCount ETV
vector 366 Tictoc2.peer[366] HopCount ETV
vector 367 Tictoc2.peer[367] HopCount ETV
vector 368 Tictoc2.peer[368] HopCount ETV
vector 369 Tictoc2.peer[369] HopCount ETV
vector 370 Tictoc2.peer[370] HopCount ETV
vector 371 Tictoc2.peer[371] HopCount ETV
vector 372 Tictoc2.peer[372] HopCount ETV
vector 373 Tictoc2.peer[373] HopCount ETV
vector 374 Tictoc2.peer[374] HopCount ETV
vector 375 Tictoc2.peer[375] HopCount ETV
vector 376 Tictoc2.peer[376] HopCount ETV
vector 377 Tictoc2.peer[377] HopCount ETV
vector 378 Tictoc2.peer[378] HopCount ETV
vector 379 Tictoc2.peer[379] HopCount ETV
vector 380 Tictoc2.peer[380] HopCount ETV
vector 381 Tictoc2.peer[381] HopCount ETV
vector 382 Tictoc2.peer[382] HopCount ETV
vector 383 Tictoc2.peer[383] HopCount ETV
vector 384 Tictoc2.peer[384] HopCount ETV
vector 385 Tictoc2.peer[385] HopCount ETV
vector 386 Tictoc2.peer[386] HopCount ETV
vector 387 Tictoc2.peer[387] HopCount ETV
vector 388 Tictoc2.peer[388] HopCount ETV
vector 389 Tictoc2.peer[389] HopCount ETV
vector 390 Tictoc2.peer[390] HopCount ETV
vector 391 Tictoc2.peer[391] HopCount ETV
vector 392 Tictoc2.peer[392] HopCount ETV
vector 393 Tictoc2.peer[393] HopCount ETV
vector 394 Tictoc2.peer[394] HopCount ETV
vector 395 Tictoc2.peer[395] HopCount ETV
vector 396 Tictoc2.peer[396] HopCount ETV
vector 397 Tictoc2.peer[397] HopCount ETV
vector 398 Tictoc2.peer[398] HopCount ETV
vector 399 Tictoc2.peer[399] HopCount ETV
vector 400 Tictoc2.peer[400] HopCount ETV
vector 401 Tictoc2.peer[401] HopCount ETV
vector 402 Tictoc2.peer[402] HopCount ETV
vector 403 Tictoc2.peer[403] HopCount ETV
vector 404 Tictoc2.peer[404] HopCount ETV
vector 405 Tictoc2.peer[405] HopCount ETV
vector 406 Tictoc2.peer[406] HopCount ETV
vector 407 Tictoc2.peer[407] HopCount ETV
vector 408 Tictoc2.peer[408] HopCount ETV
vector 409 Tictoc2.peer[409] HopCount ETV
vector 410 Tictoc2.peer[410] HopCount ETV
vector 411 Tictoc2.peer[411] HopCount ETV
vector 412 Tictoc2.peer[412] HopCount ETV
vector 413 Tictoc2.peer[413] HopCount ETV
vector 414 Tictoc2.peer[414] HopCount ETV
vector 415 Tictoc2.peer[415] HopCount ETV
vector 416 Tictoc2.peer[416] HopCount ETV
vector 417 Tictoc2.peer[417] HopCount ETV
vector 418 Tictoc2.peer[418] HopCount ETV
vector 419 Tictoc2.peer[419] HopCount ETV
vector 420 Tictoc2.peer[420] HopCount ETV
vector 421 Tictoc2.peer[421] HopCount ETV
vector 422 Tictoc2.peer[422] HopCount ETV
vector 423 Tictoc2.peer[423] HopCount ETV
vector 424 Tictoc2.peer[424] HopCount ETV
vector 425 Tictoc2.peer[425] HopCount ETV
vector 426 Tictoc2.peer[426] HopCount ETV
vector 427 Tictoc2.peer[427] HopCount ETV
vector 428 Tictoc2.peer[428] HopCount ETV
vector 429 Tictoc2.peer[429] HopCount ETV
vector 430 Tictoc2.peer[430] HopCount ETV
vector 431 Tictoc2.peer[431] HopCount ETV
vector 432 Tictoc2.peer[432] HopCount ETV
vector 433 Tictoc2.peer[433] HopCount ETV
vector 434 Tictoc2.peer[434] HopCount ETV
vector 435 Tictoc2.peer[435] HopCount ETV
vector 436 Tictoc2.peer[436] HopCount ETV
vector 437 Tictoc2.peer[437] HopCount ETV
vector 438 Tictoc2.peer[438] HopCount ETV
vector 439 Tictoc2.peer[439] HopCount ETV
vector 440 Tictoc2.peer[440] HopCount ETV
vector 441 Tictoc2.peer[441] HopCount ETV
vector 442 Tictoc2.peer[442] HopCount ETV
vector 443 Tictoc2.peer[443] HopCount ETV
vector 444 Tictoc2.peer[444] HopCount ETV
vector 445 Tictoc2.peer[445] HopCount ETV
vector 446 Tictoc2.peer[446] HopCount ETV
vector 447 Tictoc2.peer[447] HopCount ETV
vector 448 Tictoc2.peer[448] HopCount ETV
vector 449 Tictoc2.peer[449] HopCount ETV
vector 450 Tictoc2.peer[450] HopCount ETV
vector 451 Tictoc2.peer[451] HopCount ETV
vector 452 Tictoc2.peer[452] HopCount ETV
vector 453 Tictoc2.peer[453] HopCount ETV
vector 454 Tictoc2.peer[454] HopCount ETV
vector 455 Tictoc2.peer[455] HopCount ETV
vector 456 Tictoc2.peer[456] HopCount ETV
vector 457 Tictoc2.peer[457] HopCount ETV
vector 458 Tictoc2.peer[458] HopCount ETV
vector 459 Tictoc2.peer[459] HopCount ETV
vector 460 Tictoc2.peer[460] HopCount ETV
vector 461 Tictoc2.peer[461] HopCount ETV
vector 462 Tictoc2.peer[462] HopCount ETV
vector 463 Tictoc2.peer[463] HopCount ETV
vector 464 Tictoc2.peer[464] HopCount ETV
vector 465 Tictoc2.peer[465] HopCount ETV
vector 466 Tictoc2.peer[466] HopCount ETV
vector 467 Tictoc2.peer[467] HopCount ETV
vector 468 Tictoc2.peer[468] HopCount ETV
vector 469 Tictoc2.peer[469] HopCount ETV
vector 470 Tictoc2.peer[470] HopCount ETV
vector 471 Tictoc2.peer[471] HopCount ETV
vector 472 Tictoc2.peer[472] HopCount ETV
vector 473 Tictoc2.peer[473] HopCount ETV
vector 474 Tictoc2.peer[474] HopCount ETV
vector 475 Tictoc2.peer[475] HopCount ETV
vector 476 Tictoc2.peer[476] HopCount ETV
vector 477 Tictoc2.peer[477] HopCount ETV
vector 478 Tictoc2.peer[478] HopCount ETV
vector 479 Tictoc2.peer[479] HopCount ETV
vector 480 Tictoc2.peer[480] HopCount ETV
vector 481 Tictoc2.peer[481] HopCount ETV
vector 482 Tictoc2.peer[482] HopCount ETV
vector 483 Tictoc2.peer[483] HopCount ETV
vector 484 Tictoc2.peer[484] HopCount ETV
vector 485 Tictoc2.peer[485] HopCount ETV
vector 486 Tictoc2.peer[486] HopCount ETV
vector 487 Tictoc2.peer[487] HopCount ETV
vector 488 Tictoc2.peer[488] HopCount ETV
vector 489 Tictoc2.peer[489] HopCount ETV
vector 490 Tictoc2.peer[490] HopCount ETV
vector 491 Tictoc2.peer[491] HopCount ETV
vector 492 Tictoc2.peer[492] HopCount ETV
vector 493 Tictoc2.peer[493] HopCount ETV
vector 494 Tictoc2.peer[494] HopCount ETV
vector 495 Tictoc2.peer[495] HopCount ETV
vector 496 Tictoc2.peer[496] HopCount ETV
vector 497 Tictoc2.peer[497] HopCount ETV
vector 498 Tictoc2.peer[498] HopCount ETV
vector 499 Tictoc2.peer[499] HopCount ETV
0	9501	1.5	1
0	15986	2	2
0	21971	2.5	3
0	26471	3	4
0	30971	3.5	5
0	35471	4	6
0	39971	4.5	7
0	44471	5	8
0	48971	5.5	9
0	53471	6	10
0	57971	6.5	11
0	62471	7	12
0	66971	7.5	13
0	71471	8	14
0	75971	8.5	15
0	80471	9	16
0	84971	9.5	17
0	89476	10	18
0	93966	10.5	19
0	98477	11	20
0	102970	11.5	21
0	107465	12	22
0	111899	12.5	23
0	116341	13	24
0	120708	13.5	25
0	125044	14	26
0	129301	14.5	27
0	133524	15	28
0	137645	15.5	29
0	141730	16	30
0	145751	16.5	31
0	149738	17	32
0	153649	17.5	33
0	157530	18	34
0	161331	18.5	35
0	165112	19	36
0	168797	19.5	37
0	172453	20	38
0	176029	20.5	39
0	179516	21	40
0	182913	21.5	41
0	186235	22	42
0	189480	22.5	43
0	192654	23	44
0	195776	23.5	45
0	198861	24	46
0	201911	24.5	47
0	204954	25	48
0	207970	25.5	49
1	9502	1.5	1
1	15987	2	2
1	21972	2.5	3
1	26472	3	4
1	30972	3.5	5
1	35472	4	6
1	39972	4.5	7
1	44472	5	8
1	48972	5.5	9
1	53472	6	10
1	57972	6.5	11
1	62472	7	12
1	66972	7.5	13
1	71472	8	14
1	75972	8.5	15
1	80472	9	16
1	84972	9.5	17
1	89477	10	18
1	93967	10.5	19
1	98478	11	20
1	102971	11.5	21
1	107466	12	22
1	111900	12.5	23
1	116342	13	24
1	120709	13.5	25
2	9503	1.5	1
2	15988	2	2
2	21973	2.5	3
2	26473	3	4
2	30973	3.5	5
2	35473	4	6
2	39973	4.5	7
2	44473	5	8
2	48973	5.5	9
2	53473	6	10
2	57973	6.5	11
2	62473	7	12
2	66973	7.5	13
2	71473	8	14
2	75973	8.5	15
2	80473	9	16
2	84973	9.5	17
2	89478	10	18
2	93968	10.5	19
2	98479	11	20
2	102972	11.5	21
2	107467	12	22
2	111901	12.5	23
2	116343	13	24
2	120710	13.5	25
2	125046	14	26
2	129302	14.5	27
2	133525	15	28
2	137646	15.5	29
2	141731	16	30
2	145752	16.5	31
2	149739	17	32
2	153650	17.5	33
2	157531	18	34
2	161332	18.5	35
2	165113	19	36
2	168798	19.5	37
2	172454	20	38
2	176030	20.5	39
2	179517	21	40
2	182914	21.5	41
2	186236	22	42
2	189481	22.5	43
2	192655	23	44
2	198486	23.9	45
3	9504	1.5	1
3	15989	2	2
3	21974	2.5	3
3	26474	3	4
3	30974	3.5	5
3	35474	4	6
3	39974	4.5	7
3	44474	5	8
3	48974	5.5	9
3	53474	6	10
3	57974	6.5	11
3	62474	7	12
3	66974	7.5	13
3	71474	8	14
3	75974	8.5	15
3	80474	9	16
3	84974	9.5	17
3	89479	10	18
3	93969	10.5	19
3	98480	11	20
3	102973	11.5	21
3	107468	12	22
3	111902	12.5	23
4	9505	1.5	1
4	15990	2	2
4	21975	2.5	3
4	26475	3	4
4	30975	3.5	5
4	35475	4	6
4	39975	4.5	7
4	44475	5	8
4	48975	5.5	9
4	53475	6	10
4	57975	6.5	11
4	62475	7	12
4	66975	7.5	13
4	71475	8	14
4	75975	8.5	15
4	80475	9	16
4	84975	9.5	17
4	89480	10	18
4	93970	10.5	19
4	98481	11	20
4	102974	11.5	21
4	107469	12	22
4	111903	12.5	23
4	116345	13	24
4	120711	13.5	25
4	125047	14	26
4	129303	14.5	27
4	133526	15	28
4	137647	15.5	29
4	141732	16	30
4	145753	16.5	31
4	149740	17	32
4	153651	17.5	33
4	157532	18	34
4	161333	18.5	35
4	165114	19	36
4	168799	19.5	37
4	172455	20	38
4	176031	20.5	39
4	179518	21	40
4	182915	21.5	41
4	186237	22	42
4	189482	22.5	43
4	192656	23	44
4	195777	23.5	45
4	198862	24	46
4	201912	24.5	47
4	204955	25	48
4	207971	25.5	49
4	210875	26	50
4	213717	26.5	51
4	216468	27	52
4	219190	27.5	53
4	221800	28	54
4	224334	28.5	55
4	226855	29	56
4	229336	29.5	57
4	231716	30	58
4	234048	30.5	59
4	236315	31	60
4	238561	31.5	61
4	240735	32	62
4	242902	32.5	63
4	244970	33	64
4	247021	33.5	65
4	248978	34	66
4	250932	34.5	67
4	252814	35	68
4	254690	35.5	69
4	256481	36	70
4	258275	36.5	71
4	259969	37	72
4	261672	37.5	73
4	263229	38	74
4	264795	38.5	75
4	266208	39	76
4	267630	39.5	77
4	268891	40	78
4	270155	40.5	79
4	271313	41	80
4	272452	41.5	81
4	273575	42	82
4	274687	42.5	83
4	275796	43	84
4	276906	43.5	85
4	278018	44	86
4	279128	44.5	87
4	280237	45	88
4	281349	45.5	89
4	282460	46	90
4	283569	46.5	91
4	284681	47	92
4	285791	47.5	93
4	286900	48	94
4	288013	48.5	95
4	289122	49	96
4	290231	49.5	97
4	291345	50	98
4	292454	50.5	99
4	293563	51	100
5	9506	1.5	1
5	15991	2	2
5	21976	2.5	3
5	26476	3	4
5	30976	3.5	5
5	35476	4	6
5	39976	4.5	7
5	44476	5	8
5	48976	5.5	9
5	53476	6	10
5	57976	6.5	11
5	62476	7	12
5	66976	7.5	13
5	71476	8	14
5	75976	8.5	15
5	80476	9	16
5	84976	9.5	17
5	89481	10	18
5	93971	10.5	19
5	98482	11	20
5	102975	11.5	21
5	107470	12	22
5	111904	12.5	23
5	116346	13	24
5	120712	13.5	25
5	125048	14	26
5	129304	14.5	27
5	133527	15	28
5	137648	15.5	29
5	141733	16	30
5	145754	16.5	31
5	149741	17	32
5	153652	17.5	33
5	157533	18	34
5	161334	18.5	35
5	165115	19	36
5	168800	19.5	37
5	172456	20	38
5	179092	20.9	39
5	182486	21.4	40
5	185828	21.9	41
5	189072	22.4	42
5	192262	22.9	43
5	195381	23.4	44
5	198465	23.9	45
5	201502	24.4	46
5	204540	24.9	47
5	207553	25.4	48
5	210478	25.9	49
5	213309	26.4	50
5	216091	26.9	51
6	9507	1.5	1
6	15992	2	2
6	21977	2.5	3
6	26477	3	4
6	30977	3.5	5
6	35477	4	6
6	39977	4.5	7
6	44477	5	8
6	48977	5.5	9
6	53477	6	10
6	57977	6.5	11
6	62477	7	12
6	66977	7.5	13
6	71477	8	14
6	75977	8.5	15
6	80477	9	16
6	84977	9.5	17
6	89482	10	18
6	93972	10.5	19
6	98483	11	20
6	102976	11.5	21
6	107471	12	22
6	111905	12.5	23
6	116347	13	24
6	120713	13.5	25
6	125049	14	26
6	129305	14.5	27
6	133528	15	28
6	137649	15.5	29
6	141734	16	30
6	145755	16.5	31
6	149742	17	32
6	153653	17.5	33
6	157534	18	34
6	161335	18.5	35
6	165116	19	36
6	168801	19.5	37
6	172457	20	38
6	176032	20.5	39
6	179519	21	40
6	182916	21.5	41
6	186238	22	42
6	189483	22.5	43
6	192657	23	44
6	195778	23.5	45
6	198863	24	46
6	201913	24.5	47
6	204956	25	48
6	207972	25.5	49
6	210876	26	50
6	213718	26.5	51
7	9508	1.5	1
7	15993	2	2
7	21978	2.5	3
7	26478	3	4
7	30978	3.5	5
7	35478	4	6
7	39978	4.5	7
7	44478	5	8
7	48978	5.5	9
7	53478	6	10
7	57978	6.5	11
7	62478	7	12
7	66978	7.5	13
7	71478	8	14
7	75978	8.5	15
7	80478	9	16
7	84978	9.5	17
7	89483	10	18
7	93973	10.5	19
7	98484	11	20
7	102977	11.5	21
7	107472	12	22
7	111906	12.5	23
7	116348	13	24
7	120714	13.5	25
7	125050	14	26
7	129306	14.5	27
8	9509	1.5	1
8	15994	2	2
8	21979	2.5	3
8	26479	3	4
8	30979	3.5	5
8	35479	4	6
8	39979	4.5	7
8	44479	5	8
8	48979	5.5	9
8	53479	6	10
8	57979	6.5	11
8	62479	7	12
8	66979	7.5	13
8	71479	8	14
8	75979	8.5	15
8	80479	9	16
8	84979	9.5	17
8	89484	10	18
8	93974	10.5	19
8	98485	11	20
8	102978	11.5	21
8	107473	12	22
8	111907	12.5	23
8	116349	13	24
8	120715	13.5	25
8	125051	14	26
8	129307	14.5	27
8	133530	15	28
8	137650	15.5	29
8	141735	16	30
8	145756	16.5	31
8	149743	17	32
8	153654	17.5	33
8	157535	18	34
8	161336	18.5	35
8	165117	19	36
8	168802	19.5	37
8	172458	20	38
8	176033	20.5	39
8	179520	21	40
8	182917	21.5	41
8	186239	22	42
8	189484	22.5	43
8	192658	23	44
8	195779	23.5	45
8	198864	24	46
8	201914	24.5	47
8	204957	25	48
8	207973	25.5	49
8	210877	26	50
8	213719	26.5	51
8	216470	27	52
8	219191	27.5	53
8	221801	28	54
8	224335	28.5	55
8	226856	29	56
8	229337	29.5	57
8	231717	30	58
8	234049	30.5	59
8	236316	31	60
8	238562	31.5	61
8	240736	32	62
8	242903	32.5	63
8	244971	33	64
8	247022	33.5	65
8	248979	34	66
8	250933	34.5	67
8	252815	35	68
8	254691	35.5	69
8	256482	36	70
8	258276	36.5	71
8	259970	37	72
8	261673	37.5	73
8	263230	38	74
8	264796	38.5	75
8	266209	39	76
8	267631	39.5	77
8	268892	40	78
8	270156	40.5	79
8	271314	41	80
8	272453	41.5	81
8	273576	42	82
8	274688	42.5	83
8	275797	43	84
8	276907	43.5	85
8	278019	44	86
8	279129	44.5	87
8	280238	45	88
8	281350	45.5	89
8	282461	46	90
8	283570	46.5	91
8	284682	47	92
8	285792	47.5	93
8	286901	48	94
8	288014	48.5	95
8	289123	49	96
8	290232	49.5	97
8	291346	50	98
8	292455	50.5	99
8	293564	51	100
9	9510	1.5	1
9	15995	2	2
9	21980	2.5	3
9	26480	3	4
9	30980	3.5	5
9	35480	4	6
9	39980	4.5	7
9	44480	5	8
9	48980	5.5	9
9	53480	6	10
9	57980	6.5	11
9	62480	7	12
9	66980	7.5	13
9	71480	8	14
9	75980	8.5	15
9	80480	9	16
9	84980	9.5	17
9	89485	10	18
9	93975	10.5	19
9	98486	11	20
9	102979	11.5	21
9	107474	12	22
9	111908	12.5	23
9	116350	13	24
9	120716	13.5	25
9	125052	14	26
9	129308	14.5	27
9	133531	15	28
9	137651	15.5	29
9	141736	16	30
9	145757	16.5	31
9	149744	17	32
9	153655	17.5	33
9	157536	18	34
9	161337	18.5	35
10	9511	1.5	1
10	15996	2	2
10	21981	2.5	3
10	26481	3	4
10	30981	3.5	5
10	35481	4	6
10	39981	4.5	7
10	44481	5	8
10	48981	5.5	9
10	53481	6	10
10	57981	6.5	11
10	62481	7	12
10	66981	7.5	13
10	71481	8	14
10	75981	8.5	15
10	80481	9	16
10	84981	9.5	17
10	89486	10	18
10	93976	10.5	19
10	98487	11	20
10	102980	11.5	21
10	107475	12	22
10	111909	12.5	23
10	116351	13	24
10	120717	13.5	25
10	125053	14	26
10	129309	14.5	27
10	133532	15	28
10	137652	15.5	29
10	141737	16	30
10	145758	16.5	31
10	149745	17	32
10	153656	17.5	33
10	157537	18	34
10	161338	18.5	35
10	165119	19	36
10	168803	19.5	37
10	172459	20	38
10	176034	20.5	39
10	179521	21	40
10	182918	21.5	41
10	186240	22	42
10	189485	22.5	43
10	192659	23	44
10	195780	23.5	45
10	198865	24	46
10	201915	24.5	47
10	204958	25	48
10	207974	25.5	49
10	210878	26	50
10	213720	26.5	51
10	216471	27	52
10	219192	27.5	53
10	221802	28	54
10	224336	28.5	55
10	226857	29	56
10	229338	29.5	57
10	231718	30	58
10	234050	30.5	59
10	236317	31	60
10	238563	31.5	61
10	240737	32	62
10	242904	32.5	63
10	244972	33	64
10	247023	33.5	65
10	248980	34	66
10	250934	34.5	67
10	252816	35	68
10	254692	35.5	69