version 3
run Tictoc2-0-20240121-17:40:38-14614
attr configname Tictoc2
attr datetime 20240121-17:40:38
attr datetimef 20240121-174038
attr experiment Tictoc2
attr inifile omnetpp.ini
attr iterationvars ""
attr iterationvarsd ""
attr iterationvarsf ""
attr measurement ""
attr network Tictoc2
attr processid 14614
attr repetition 0
attr replication #0
attr resultdir results
attr runnumber 0
attr seedset 0
config network Tictoc2

vector 0 Tictoc2.peer[0] HopCount ETV
vector 1 Tictoc2.peer[1] HopCount ETV
vector 2 Tictoc2.peer[3] HopCount ETV
vector 3 Tictoc2.peer[6] HopCount ETV
vector 4 Tictoc2.peer[7] HopCount ETV
vector 5 Tictoc2.peer[8] HopCount ETV
vector 6 Tictoc2.peer[9] HopCount ETV
vector 7 Tictoc2.peer[2] HopCount ETV
vector 8 Tictoc2.peer[4] HopCount ETV
vector 9 Tictoc2.peer[5] HopCount ETV
0	188	1.5	1
0	267	2	2
0	326	2.5	3
0	373	3	4
0	417	3.5	5
0	461	4	6
0	511	4.5	7
0	555	5	8
0	599	5.5	9
0	646	6	10
0	690	6.5	11
0	737	7	12
0	781	7.5	13
0	825	8	14
0	875	8.5	15
0	919	9	16
0	963	9.5	17
0	1010	10	18
0	1054	10.5	19
0	1101	11	20
0	1145	11.5	21
0	1189	12	22
0	1239	12.5	23
0	1283	13	24
0	1327	13.5	25
0	1374	14	26
0	1418	14.5	27
0	1465	15	28
0	1509	15.5	29
0	1553	16	30
0	1603	16.5	31
0	1647	17	32
0	1691	17.5	33
0	1738	18	34
0	1782	18.5	35
0	1830	19	36
0	1879	19.5	37
0	1926	20	38
0	1972	20.5	39
0	2015	21	40
0	2058	21.5	41
0	2097	22	42
0	2129	22.5	43
0	2162	23	44
0	2193	23.5	45
0	2224	24	46
0	2259	24.5	47
0	2290	25	48
0	2321	25.5	49
0	2354	26	50
0	2385	26.5	51
0	2418	27	52
0	2449	27.5	53
0	2480	28	54
0	2515	28.5	55
0	2546	29	56
0	2577	29.5	57
0	2610	30	58
0	2641	30.5	59
0	2674	31	60
0	2705	31.5	61
0	2736	32	62
0	2771	32.5	63
0	2802	33	64
0	2833	33.5	65
0	2866	34	66
0	2897	34.5	67
0	2930	35	68
0	2961	35.5	69
0	2992	36	70
0	3027	36.5	71
0	3058	37	72
0	3089	37.5	73
0	3122	38	74
0	3153	38.5	75
0	3186	39	76
0	3217	39.5	77
0	3248	40	78
0	3283	40.5	79
0	3314	41	80
0	3345	41.5	81
0	3378	42	82
0	3409	42.5	83
0	3442	43	84
0	3473	43.5	85
0	3504	44	86
0	3539	44.5	87
0	3570	45	88
0	3601	45.5	89
0	3634	46	90
0	3665	46.5	91
0	3698	47	92
0	3729	47.5	93
0	3760	48	94
0	3795	48.5	95
0	3826	49	96
0	3857	49.5	97
0	3890	50	98
0	3921	50.5	99
0	3954	51	100
1	189	1.5	1
1	268	2	2
1	327	2.5	3
1	374	3	4
1	418	3.5	5
1	462	4	6
1	512	4.5	7
1	556	5	8
1	600	5.5	9
1	647	6	10
1	691	6.5	11
1	738	7	12
1	782	7.5	13
1	826	8	14
1	876	8.5	15
1	920	9	16
1	964	9.5	17
1	1011	10	18
1	1055	10.5	19
1	1102	11	20
1	1146	11.5	21
1	1190	12	22
1	1240	12.5	23
1	1284	13	24
1	1328	13.5	25
1	1375	14	26
1	1419	14.5	27
1	1466	15	28
1	1510	15.5	29
1	1554	16	30
1	1604	16.5	31
1	1648	17	32
1	1692	17.5	33
1	1739	18	34
1	1783	18.5	35
1	1831	19	36
1	1880	19.5	37
1	1927	20	38
1	1973	20.5	39
1	2016	21	40
2	190	1.5	1
2	269	2	2
2	328	2.5	3
2	375	3	4
2	419	3.5	5
2	463	4	6
2	513	4.5	7
2	557	5	8
2	601	5.5	9
2	648	6	10
2	692	6.5	11
2	739	7	12
2	783	7.5	13
2	827	8	14
2	877	8.5	15
2	921	9	16
2	965	9.5	17
2	1012	10	18
2	1056	10.5	19
2	1103	11	20
2	1147	11.5	21
2	1191	12	22
2	1241	12.5	23
2	1285	13	24
2	1329	13.5	25
2	1376	14	26
2	1420	14.5	27
2	1467	15	28
2	1511	15.5	29
2	1555	16	30
2	1605	16.5	31
2	1649	17	32
2	1693	17.5	33
2	1740	18	34
2	1784	18.5	35
2	1832	19	36
2	1881	19.5	37
2	1928	20	38
2	1974	20.5	39
2	2017	21	40
2	2059	21.5	41
2	2098	22	42
2	2130	22.5	43
2	2163	23	44
2	2194	23.5	45
2	2225	24	46
2	2260	24.5	47
2	2291	25	48
2	2322	25.5	49
2	2355	26	50
2	2386	26.5	51
2	2419	27	52
2	2450	27.5	53
2	2481	28	54
2	2516	28.5	55
2	2547	29	56
2	2578	29.5	57
2	2611	30	58
2	2642	30.5	59
2	2675	31	60
2	2706	31.5	61
2	2737	32	62
2	2772	32.5	63
2	2803	33	64
2	2834	33.5	65
2	2867	34	66
2	2898	34.5	67
2	2931	35	68
2	2962	35.5	69
2	2993	36	70
2	3028	36.5	71
2	3059	37	72
2	3090	37.5	73
2	3123	38	74
2	3154	38.5	75
2	3187	39	76
2	3218	39.5	77
2	3249	40	78
2	3284	40.5	79
2	3315	41	80
2	3346	41.5	81
2	3379	42	82
2	3410	42.5	83
2	3443	43	84
2	3474	43.5	85
2	3505	44	86
2	3540	44.5	87
2	3571	45	88
2	3602	45.5	89
2	3635	46	90
2	3666	46.5	91
2	3699	47	92
2	3730	47.5	93
2	3761	48	94
2	3796	48.5	95
2	3827	49	96
2	3858	49.5	97
2	3891	50	98
2	3922	50.5	99
2	3955	51	100
3	191	1.5	1
3	270	2	2
3	329	2.5	3
3	376	3	4
3	420	3.5	5
3	464	4	6
3	514	4.5	7
3	558	5	8
3	602	5.5	9
3	649	6	10
3	693	6.5	11
3	740	7	12
3	784	7.5	13
3	828	8	14
3	878	8.5	15
3	922	9	16
3	966	9.5	17
3	1013	10	18
3	1057	10.5	19
3	1104	11	20
3	1148	11.5	21
3	1192	12	22
3	1242	12.5	23
3	1286	13	24
3	1330	13.5	25
3	1377	14	26
3	1421	14.5	27
3	1468	15	28
3	1512	15.5	29
3	1556	16	30
3	1606	16.5	31
3	1650	17	32
3	1694	17.5	33
3	1741	18	34
3	1785	18.5	35
3	1833	19	36
3	1882	19.5	37
3	1929	20	38
3	1975	20.5	39
3	2018	21	40
3	2060	21.5	41
3	2099	22	42
3	2131	22.5	43
3	2164	23	44
3	2195	23.5	45
3	2226	24	46
3	2261	24.5	47
3	2292	25	48
3	2323	25.5	49
3	2356	26	50
3	2387	26.5	51
3	2420	27	52
3	2451	27.5	53
3	2482	28	54
3	2517	28.5	55
3	2548	29	56
3	2579	29.5	57
3	2612	30	58
3	2643	30.5	59
3	2676	31	60
3	2707	31.5	61
3	2738	32	62
3	2773	32.5	63
3	2804	33	64
3	2835	33.5	65
3	2868	34	66
3	2899	34.5	67
3	2932	35	68
3	2963	35.5	69
3	2994	36	70
3	3029	36.5	71
3	3060	37	72
3	3091	37.5	73
3	3124	38	74
3	3155	38.5	75
3	3188	39	76
3	3219	39.5	77
3	3250	40	78
3	3285	40.5	79
3	3316	41	80
3	3347	41.5	81
3	3380	42	82
3	3411	42.5	83
3	3444	43	84
3	3475	43.5	85
3	3506	44	86
3	3541	44.5	87
3	3572	45	88
3	3603	45.5	89
3	3636	46	90
3	3667	46.5	91
3	3700	47	92
3	3731	47.5	93
3	3762	48	94
3	3797	48.5	95
3	3828	49	96
3	3859	49.5	97
3	3892	50	98
3	3923	50.5	99
3	3956	51	100
4	192	1.5	1
4	271	2	2
4	330	2.5	3
4	377	3	4
4	421	3.5	5
4	465	4	6
4	515	4.5	7
4	559	5	8
4	603	5.5	9
4	650	6	10
4	694	6.5	11
4	741	7	12
4	785	7.5	13
4	829	8	14
4	879	8.5	15
4	923	9	16
4	967	9.5	17
4	1014	10	18
4	1058	10.5	19
4	1105	11	20
4	1149	11.5	21
4	1193	12	22
4	1243	12.5	23
4	1287	13	24
4	1331	13.5	25
4	1378	14	26
4	1422	14.5	27
4	1469	15	28
4	1513	15.5	29
4	1557	16	30
4	1607	16.5	31
4	1651	17	32
4	1695	17.5	33
4	1742	18	34
4	1786	18.5	35
4	1834	19	36
4	1883	19.5	37
4	1930	20	38
4	1976	20.5	39
4	2019	21	40
4	2061	21.5	41
4	2100	22	42
4	2132	22.5	43
4	2165	23	44
4	2196	23.5	45
4	2227	24	46
4	2262	24.5	47
4	2293	25	48
4	2324	25.5	49
4	2357	26	50
4	2388	26.5	51
4	2421	27	52
4	2452	27.5	53
4	2483	28	54
4	2518	28.5	55
4	2549	29	56
4	2580	29.5	57
4	2613	30	58
4	2644	30.5	59
4	2677	31	60
4	2708	31.5	61
4	2739	32	62
4	2774	32.5	63
4	2805	33	64
4	2836	33.5	65
4	2869	34	66
4	2900	34.5	67
4	2933	35	68
4	2964	35.5	69
4	2995	36	70
4	3030	36.5	71
4	3061	37	72
4	3092	37.5	73
4	3125	38	74
4	3156	38.5	75
4	3189	39	76
4	3220	39.5	77
4	3251	40	78
4	3286	40.5	79
4	3317	41	80
4	3348	41.5	81
4	3381	42	82
4	3412	42.5	83
4	3445	43	84
4	3476	43.5	85
4	3507	44	86
4	3542	44.5	87
4	3573	45	88
4	3604	45.5	89
4	3637	46	90
4	3668	46.5	91
4	3701	47	92
4	3732	47.5	93
4	3763	48	94
4	3798	48.5	95
4	3829	49	96
4	3860	49.5	97
4	3893	50	98
4	3924	50.5	99
4	3957	51	100
5	193	1.5	1
5	272	2	2
5	331	2.5	3
5	378	3	4
5	422	3.5	5
5	466	4	6
5	516	4.5	7
5	560	5	8
5	604	5.5	9
5	651	6	10
5	695	6.5	11
5	742	7	12
5	786	7.5	13
5	830	8	14
5	880	8.5	15
5	924	9	16
5	968	9.5	17
5	1015	10	18
5	1059	10.5	19
5	1106	11	20
5	1150	11.5	21
5	1194	12	22
5	1244	12.5	23
5	1288	13	24
5	1332	13.5	25
5	1379	14	26
5	1423	14.5	27
5	1470	15	28
5	1514	15.5	29
5	1558	16	30
5	1608	16.5	31
5	1652	17	32
5	1696	17.5	33
5	1743	18	34
5	1787	18.5	35
5	1835	19	36
5	1884	19.5	37
5	1931	20	38
5	1977	20.5	39
5	2020	21	40
5	2062	21.5	41
5	2101	22	42
5	2133	22.5	43
5	2166	23	44
5	2197	23.5	45
5	2228	24	46
5	2263	24.5	47
5	2294	25	48
5	2325	25.5	49
5	2358	26	50
5	2389	26.5	51
5	2422	27	52
5	2453	27.5	53
5	2484	28	54
5	2519	28.5	55
5	2550	29	56
5	2581	29.5	57
5	2614	30	58
5	2645	30.5	59
5	2678	31	60
5	2709	31.5	61
5	2740	32	62
5	2775	32.5	63
5	2806	33	64
5	2837	33.5	65
5	2870	34	66
5	2901	34.5	67
5	2934	35	68
5	2965	35.5	69
5	2996	36	70
5	3031	36.5	71
5	3062	37	72
5	3093	37.5	73
5	3126	38	74
5	3157	38.5	75
5	3190	39	76
5	3221	39.5	77
5	3252	40	78
5	3287	40.5	79
5	3318	41	80
5	3349	41.5	81
5	3382	42	82
5	3413	42.5	83
5	3446	43	84
5	3477	43.5	85
5	3508	44	86
5	3543	44.5	87
5	3574	45	88
5	3605	45.5	89
5	3638	46	90
5	3669	46.5	91
5	3702	47	92
5	3733	47.5	93
5	3764	48	94
5	3799	48.5	95
5	3830	49	96
5	3861	49.5	97
5	3894	50	98
5	3925	50.5	99
5	3958	51	100
6	194	1.5	1
6	273	2	2
6	332	2.5	3
6	379	3	4
6	423	3.5	5
6	467	4	6
6	517	4.5	7
6	561	5	8
6	605	5.5	9
6	652	6	10
6	696	6.5	11
6	743	7	12
6	787	7.5	13
6	831	8	14
6	881	8.5	15
6	925	9	16
6	969	9.5	17
6	1016	10	18
6	1060	10.5	19
6	1107	11	20
6	1151	11.5	21
6	1195	12	22
6	1245	12.5	23
6	1289	13	24
6	1333	13.5	25
6	1380	14	26
6	1424	14.5	27
6	1471	15	28
6	1515	15.5	29
6	1559	16	30
6	1609	16.5	31
6	1653	17	32
6	1697	17.5	33
6	1744	18	34
6	1788	18.5	35
6	1836	19	36
6	1910	19.85	37
6	1953	20.3	38
6	1992	20.75	39
7	237	1.8	1
7	333	2.6	2
7	407	3.4	3
7	478	4.2	4
7	552	5	5
7	626	5.8	6
7	697	6.6	7
7	771	7.4	8
7	842	8.2	9
7	916	9	10
7	990	9.8	11
7	1061	10.6	12
7	1135	11.4	13
7	1206	12.2	14
7	1280	13	15
7	1354	13.8	16
7	1425	14.6	17
7	1499	15.4	18
7	1570	16.2	19
7	1644	17	20
7	1718	17.8	21
7	1789	18.6	22
8	238	1.8	1
8	334	2.6	2
8	408	3.4	3
8	479	4.2	4
8	553	5	5
8	627	5.8	6
8	698	6.6	7
8	772	7.4	8
8	843	8.2	9
8	917	9	10
8	991	9.8	11
8	1062	10.6	12
8	1136	11.4	13
8	1207	12.2	14
8	1281	13	15
8	1355	13.8	16
8	1426	14.6	17
8	1500	15.4	18
8	1571	16.2	19
8	1645	17	20
8	1719	17.8	21
8	1790	18.6	22
8	1869	19.4	23
8	1943	20.2	24
8	2013	21	25
8	2080	21.8	26
8	2134	22.6	27
8	2186	23.4	28
8	2236	24.2	29
8	2288	25	30
8	2340	25.8	31
8	2390	26.6	32
8	2442	27.4	33
8	2492	28.2	34
8	2544	29	35
8	2596	29.8	36
8	2646	30.6	37
8	2698	31.4	38
8	2748	32.2	39
8	2800	33	40
8	2852	33.8	41
8	2902	34.6	42
8	2954	35.4	43
8	3004	36.2	44
8	3056	37	45
8	3108	37.8	46
8	3158	38.6	47
8	3210	39.4	48
8	3260	40.2	49
8	3312	41	50
8	3364	41.8	51
8	3414	42.6	52
8	3466	43.4	53
8	3516	44.2	54
8	3568	45	55
8	3620	45.8	56
8	3670	46.6	57
8	3722	47.4	58
8	3772	48.2	59
8	3824	49	60
8	3876	49.8	61
8	3926	50.6	62
8	3973	51.4	63
8	3988	52.2	64
8	4000	53	65
8	4012	53.8	66
8	4022	54.6	67
8	4034	55.4	68
8	4044	56.2	69
8	4056	57	70
8	4068	57.8	71
8	4078	58.6	72
8	4090	59.4	73
8	4100	60.2	74
8	4112	61	75
8	4124	61.8	76
8	4134	62.6	77
8	4146	63.4	78
8	4156	64.2	79
8	4168	65	80
8	4180	65.8	81
8	4190	66.6	82
8	4202	67.4	83
8	4212	68.2	84
8	4224	69	85
8	4236	69.8	86
8	4246	70.6	87
8	4258	71.4	88
8	4268	72.2	89
8	4280	73	90
8	4292	73.8	91
8	4302	74.6	92
8	4314	75.4	93
8	4324	76.2	94
8	4336	77	95
8	4348	77.8	96
8	4358	78.6	97
8	4370	79.4	98
8	4380	80.2	99
8	4392	81	100
9	239	1.8	1
9	335	2.6	2
9	409	3.4	3
9	480	4.2	4
9	554	5	5
9	628	5.8	6
9	699	6.6	7
9	773	7.4	8
9	844	8.2	9
9	918	9	10
9	992	9.8	11
9	1063	10.6	12
9	1137	11.4	13
9	1208	12.2	14
9	1282	13	15
9	1356	13.8	16
9	1427	14.6	17
9	1501	15.4	18
9	1572	16.2	19
9	1646	17	20
9	1720	17.8	21
9	1791	18.6	22
9	1870	19.4	23
9	1944	20.2	24
9	2014	21	25
9	2081	21.8	26
9	2135	22.6	27
9	2187	23.4	28
9	2237	24.2	29
9	2289	25	30
9	2341	25.8	31
9	2391	26.6	32
9	2443	27.4	33
9	2493	28.2	34
9	2545	29	35
9	2597	29.8	36
9	2647	30.6	37
9	2699	31.4	38
9	2749	32.2	39
9	2801	33	40
9	2853	33.8	41
9	2903	34.6	42
9	2955	35.4	43
9	3005	36.2	44
9	3057	37	45
9	3109	37.8	46
9	3159	38.6	47
9	3211	39.4	48
9	3261	40.2	49
9	3313	41	50
9	3365	41.8	51
9	3415	42.6	52
9	3467	43.4	53
9	3517	44.2	54
9	3569	45	55
9	3621	45.8	56
9	3671	46.6	57
9	3723	47.4	58
9	3773	48.2	59
9	3825	49	60
9	3877	49.8	61
9	3927	50.6	62
9	3974	51.4	63
9	3989	52.2	64
9	4001	53	65
9	4013	53.8	66
9	4023	54.6	67
9	4035	55.4	68
9	4045	56.2	69
9	4057	57	70
9	4069	57.8	71
9	4079	58.6	72
9	4091	59.4	73
9	4101	60.2	74
9	4113	61	75
9	4125	61.8	76
9	4135	62.6	77
9	4147	63.4	78
9	4157	64.2	79
9	4169	65	80
9	4181	65.8	81
9	4191	66.6	82
9	4203	67.4	83
9	4213	68.2	84
9	4225	69	85
9	4237	69.8	86
9	4247	70.6	87
9	4259	71.4	88
9	4269	72.2	89
9	4281	73	90
9	4293	73.8	91
9	4303	74.6	92
9	4315	75.4	93
9	4325	76.2	94
9	4337	77	95
9	4349	77.8	96
9	4359	78.6	97
9	4371	79.4	98
9	4381	80.2	99
9	4393	81	100

