version 3
run Tictoc2-0-20240301-16:46:59-16129
attr configname Tictoc2
attr datetime 20240301-16:46:59
attr datetimef 20240301-164659
attr experiment Tictoc2
attr inifile omnetpp.ini
attr iterationvars ""
attr iterationvarsd ""
attr iterationvarsf ""
attr measurement ""
attr network Tictoc2
attr processid 16129
attr repetition 0
attr replication #0
attr resultdir results
attr runnumber 0
attr seedset 0
config network Tictoc2

vector 0 Tictoc2.peer[0] HopCount ETV
vector 1 Tictoc2.peer[1] HopCount ETV
vector 2 Tictoc2.peer[2] HopCount ETV
vector 3 Tictoc2.peer[3] HopCount ETV
vector 4 Tictoc2.peer[4] HopCount ETV
vector 5 Tictoc2.peer[5] HopCount ETV
vector 6 Tictoc2.peer[6] HopCount ETV
vector 7 Tictoc2.peer[7] HopCount ETV
vector 8 Tictoc2.peer[8] HopCount ETV
vector 9 Tictoc2.peer[9] HopCount ETV
vector 10 Tictoc2.peer[10] HopCount ETV
vector 11 Tictoc2.peer[11] HopCount ETV
vector 12 Tictoc2.peer[12] HopCount ETV
vector 13 Tictoc2.peer[13] HopCount ETV
vector 14 Tictoc2.peer[14] HopCount ETV
vector 15 Tictoc2.peer[15] HopCount ETV
vector 16 Tictoc2.peer[16] HopCount ETV
vector 17 Tictoc2.peer[17] HopCount ETV
vector 18 Tictoc2.peer[18] HopCount ETV
vector 19 Tictoc2.peer[19] HopCount ETV
vector 20 Tictoc2.peer[20] HopCount ETV
vector 21 Tictoc2.peer[21] HopCount ETV
vector 22 Tictoc2.peer[22] HopCount ETV
vector 23 Tictoc2.peer[23] HopCount ETV
vector 24 Tictoc2.peer[24] HopCount ETV
vector 25 Tictoc2.peer[25] HopCount ETV
vector 26 Tictoc2.peer[26] HopCount ETV
vector 27 Tictoc2.peer[27] HopCount ETV
vector 28 Tictoc2.peer[28] HopCount ETV
vector 29 Tictoc2.peer[29] HopCount ETV
vector 30 Tictoc2.peer[30] HopCount ETV
vector 31 Tictoc2.peer[31] HopCount ETV
vector 32 Tictoc2.peer[32] HopCount ETV
vector 33 Tictoc2.peer[33] HopCount ETV
vector 34 Tictoc2.peer[34] HopCount ETV
vector 35 Tictoc2.peer[35] HopCount ETV
vector 36 Tictoc2.peer[36] HopCount ETV
vector 37 Tictoc2.peer[37] HopCount ETV
vector 38 Tictoc2.peer[38] HopCount ETV
vector 39 Tictoc2.peer[39] HopCount ETV
vector 40 Tictoc2.peer[40] HopCount ETV
vector 41 Tictoc2.peer[41] HopCount ETV
vector 42 Tictoc2.peer[42] HopCount ETV
vector 43 Tictoc2.peer[43] HopCount ETV
vector 44 Tictoc2.peer[44] HopCount ETV
vector 45 Tictoc2.peer[45] HopCount ETV
vector 46 Tictoc2.peer[46] HopCount ETV
vector 47 Tictoc2.peer[47] HopCount ETV
vector 48 Tictoc2.peer[48] HopCount ETV
vector 49 Tictoc2.peer[49] HopCount ETV
vector 50 Tictoc2.peer[50] HopCount ETV
vector 51 Tictoc2.peer[51] HopCount ETV
vector 52 Tictoc2.peer[52] HopCount ETV
vector 53 Tictoc2.peer[53] HopCount ETV
vector 54 Tictoc2.peer[54] HopCount ETV
vector 55 Tictoc2.peer[55] HopCount ETV
vector 56 Tictoc2.peer[56] HopCount ETV
vector 57 Tictoc2.peer[57] HopCount ETV
vector 58 Tictoc2.peer[58] HopCount ETV
vector 59 Tictoc2.peer[59] HopCount ETV
vector 60 Tictoc2.peer[60] HopCount ETV
vector 61 Tictoc2.peer[61] HopCount ETV
vector 62 Tictoc2.peer[62] HopCount ETV
vector 63 Tictoc2.peer[63] HopCount ETV
vector 64 Tictoc2.peer[64] HopCount ETV
vector 65 Tictoc2.peer[65] HopCount ETV
vector 66 Tictoc2.peer[66] HopCount ETV
vector 67 Tictoc2.peer[67] HopCount ETV
vector 68 Tictoc2.peer[68] HopCount ETV
vector 69 Tictoc2.peer[69] HopCount ETV
vector 70 Tictoc2.peer[70] HopCount ETV
vector 71 Tictoc2.peer[71] HopCount ETV
vector 72 Tictoc2.peer[72] HopCount ETV
vector 73 Tictoc2.peer[73] HopCount ETV
vector 74 Tictoc2.peer[74] HopCount ETV
vector 75 Tictoc2.peer[75] HopCount ETV
vector 76 Tictoc2.peer[76] HopCount ETV
vector 77 Tictoc2.peer[77] HopCount ETV
vector 78 Tictoc2.peer[78] HopCount ETV
vector 79 Tictoc2.peer[79] HopCount ETV
vector 80 Tictoc2.peer[80] HopCount ETV
vector 81 Tictoc2.peer[81] HopCount ETV
vector 82 Tictoc2.peer[82] HopCount ETV
vector 83 Tictoc2.peer[83] HopCount ETV
vector 84 Tictoc2.peer[84] HopCount ETV
vector 85 Tictoc2.peer[85] HopCount ETV
vector 86 Tictoc2.peer[86] HopCount ETV
vector 87 Tictoc2.peer[87] HopCount ETV
vector 88 Tictoc2.peer[88] HopCount ETV
vector 89 Tictoc2.peer[89] HopCount ETV
vector 90 Tictoc2.peer[90] HopCount ETV
vector 91 Tictoc2.peer[91] HopCount ETV
vector 92 Tictoc2.peer[92] HopCount ETV
vector 93 Tictoc2.peer[93] HopCount ETV
vector 94 Tictoc2.peer[94] HopCount ETV
vector 95 Tictoc2.peer[95] HopCount ETV
vector 96 Tictoc2.peer[96] HopCount ETV
vector 97 Tictoc2.peer[97] HopCount ETV
vector 98 Tictoc2.peer[98] HopCount ETV
vector 99 Tictoc2.peer[99] HopCount ETV
vector 100 Tictoc2.peer[100] HopCount ETV
vector 101 Tictoc2.peer[101] HopCount ETV
vector 102 Tictoc2.peer[102] HopCount ETV
vector 103 Tictoc2.peer[103] HopCount ETV
vector 104 Tictoc2.peer[104] HopCount ETV
vector 105 Tictoc2.peer[105] HopCount ETV
vector 106 Tictoc2.peer[106] HopCount ETV
vector 107 Tictoc2.peer[107] HopCount ETV
vector 108 Tictoc2.peer[108] HopCount ETV
vector 109 Tictoc2.peer[109] HopCount ETV
vector 110 Tictoc2.peer[110] HopCount ETV
vector 111 Tictoc2.peer[111] HopCount ETV
vector 112 Tictoc2.peer[112] HopCount ETV
vector 113 Tictoc2.peer[113] HopCount ETV
vector 114 Tictoc2.peer[114] HopCount ETV
vector 115 Tictoc2.peer[115] HopCount ETV
vector 116 Tictoc2.peer[116] HopCount ETV
vector 117 Tictoc2.peer[117] HopCount ETV
vector 118 Tictoc2.peer[118] HopCount ETV
vector 119 Tictoc2.peer[119] HopCount ETV
vector 120 Tictoc2.peer[120] HopCount ETV
vector 121 Tictoc2.peer[121] HopCount ETV
vector 122 Tictoc2.peer[122] HopCount ETV
vector 123 Tictoc2.peer[123] HopCount ETV
vector 124 Tictoc2.peer[124] HopCount ETV
vector 125 Tictoc2.peer[125] HopCount ETV
vector 126 Tictoc2.peer[126] HopCount ETV
vector 127 Tictoc2.peer[127] HopCount ETV
vector 128 Tictoc2.peer[128] HopCount ETV
vector 129 Tictoc2.peer[129] HopCount ETV
vector 130 Tictoc2.peer[130] HopCount ETV
vector 131 Tictoc2.peer[131] HopCount ETV
vector 132 Tictoc2.peer[132] HopCount ETV
vector 133 Tictoc2.peer[133] HopCount ETV
vector 134 Tictoc2.peer[134] HopCount ETV
vector 135 Tictoc2.peer[135] HopCount ETV
vector 136 Tictoc2.peer[136] HopCount ETV
vector 137 Tictoc2.peer[137] HopCount ETV
vector 138 Tictoc2.peer[138] HopCount ETV
vector 139 Tictoc2.peer[139] HopCount ETV
vector 140 Tictoc2.peer[140] HopCount ETV
vector 141 Tictoc2.peer[141] HopCount ETV
vector 142 Tictoc2.peer[142] HopCount ETV
vector 143 Tictoc2.peer[143] HopCount ETV
vector 144 Tictoc2.peer[144] HopCount ETV
vector 145 Tictoc2.peer[145] HopCount ETV
vector 146 Tictoc2.peer[146] HopCount ETV
vector 147 Tictoc2.peer[147] HopCount ETV
vector 148 Tictoc2.peer[148] HopCount ETV
vector 149 Tictoc2.peer[149] HopCount ETV
0	2851	1.5	1
0	4486	2	2
0	5971	2.5	3
0	6871	3	4
0	7921	3.5	5
0	8821	4	6
0	9871	4.5	7
0	10771	5	8
0	11821	5.5	9
0	12721	6	10
0	13771	6.5	11
0	14671	7	12
0	15721	7.5	13
0	16621	8	14
0	17671	8.5	15
0	18571	9	16
0	19621	9.5	17
0	20522	10	18
0	24428	12	19
0	25628	12.6	20
0	26813	13.2	21
0	27995	13.8	22
0	29176	14.4	23
0	30218	15	24
0	31404	15.6	25
1	2852	1.5	1
1	4487	2	2
1	5972	2.5	3
1	6872	3	4
1	7922	3.5	5
1	8822	4	6
1	9872	4.5	7
1	10772	5	8
1	11822	5.5	9
1	12722	6	10
1	13772	6.5	11
1	14672	7	12
1	15722	7.5	13
1	16622	8	14
1	17672	8.5	15
1	18572	9	16
1	19622	9.5	17
1	20523	10	18
1	21572	10.5	19
1	22473	11	20
1	23522	11.5	21
1	24429	12	22
1	25478	12.5	23
1	26371	13	24
1	27406	13.5	25
1	28293	14	26
1	29328	14.5	27
1	30219	15	28
1	31256	15.5	29
1	32142	16	30
1	33171	16.5	31
1	34054	17	32
1	35086	17.5	33
1	35974	18	34
1	36995	18.5	35
1	37865	19	36
1	38870	19.5	37
1	39736	20	38
1	40743	20.5	39
1	41605	21	40
1	42607	21.5	41
1	43461	22	42
1	44453	22.5	43
1	45303	23	44
1	46290	23.5	45
1	47133	24	46
1	48113	24.5	47
1	48949	25	48
1	49919	25.5	49
1	50750	26	50
1	51721	26.5	51
1	52553	27	52
1	53526	27.5	53
1	54362	28	54
1	55335	28.5	55
1	56166	29	56
1	57135	29.5	57
1	57960	30	58
1	58923	30.5	59
1	59741	31	60
1	60689	31.5	61
1	61498	32	62
1	62442	32.5	63
1	63250	33	64
1	64192	33.5	65
1	65001	34	66
1	65944	34.5	67
1	66751	35	68
1	67695	35.5	69
1	68503	36	70
1	69445	36.5	71
1	70254	37	72
1	71197	37.5	73
1	72004	38	74
1	72948	38.5	75
1	73756	39	76
1	74698	39.5	77
1	75507	40	78
1	76450	40.5	79
1	77257	41	80
1	78201	41.5	81
1	79009	42	82
1	79951	42.5	83
1	80760	43	84
1	81703	43.5	85
1	82510	44	86
1	83454	44.5	87
1	84262	45	88
1	85204	45.5	89
1	86013	46	90
1	86956	46.5	91
1	87763	47	92
1	88707	47.5	93
1	89515	48	94
1	90457	48.5	95
1	91266	49	96
1	92209	49.5	97
1	93016	50	98
1	93960	50.5	99
1	94768	51	100
2	2853	1.5	1
2	4488	2	2
2	5973	2.5	3
2	6873	3	4
2	7923	3.5	5
2	8823	4	6
2	9873	4.5	7
2	10773	5	8
2	11823	5.5	9
2	12723	6	10
2	13773	6.5	11
2	14673	7	12
2	15723	7.5	13
2	16623	8	14
2	17673	8.5	15
2	18573	9	16
2	19623	9.5	17
2	20524	10	18
2	21573	10.5	19
2	22474	11	20
2	23523	11.5	21
2	24430	12	22
2	25479	12.5	23
2	26372	13	24
2	27407	13.5	25
2	28294	14	26
2	29329	14.5	27
2	30220	15	28
2	31257	15.5	29
2	32143	16	30
2	33172	16.5	31
2	34055	17	32
2	35087	17.5	33
2	35975	18	34
2	36996	18.5	35
2	37866	19	36
2	38871	19.5	37
2	39737	20	38
2	40744	20.5	39
2	41606	21	40
2	42608	21.5	41
2	43462	22	42
2	44454	22.5	43
2	45304	23	44
2	46291	23.5	45
2	47134	24	46
2	48114	24.5	47
2	48950	25	48
2	49920	25.5	49
2	50751	26	50
2	51722	26.5	51
2	52554	27	52
2	53527	27.5	53
2	54363	28	54
2	55336	28.5	55
2	56167	29	56
2	57136	29.5	57
2	57961	30	58
2	58924	30.5	59
2	59742	31	60
2	60690	31.5	61
2	61499	32	62
2	62443	32.5	63
2	63251	33	64
2	64193	33.5	65
2	65002	34	66
2	65945	34.5	67
2	66752	35	68
2	67696	35.5	69
2	68504	36	70
2	69446	36.5	71
2	70255	37	72
2	71198	37.5	73
2	72005	38	74
2	72949	38.5	75
2	73757	39	76
2	74699	39.5	77
2	75508	40	78
2	76451	40.5	79
2	77258	41	80
2	78202	41.5	81
2	79010	42	82
2	79952	42.5	83
2	80761	43	84
2	81704	43.5	85
2	82511	44	86
2	83455	44.5	87
2	84263	45	88
2	85205	45.5	89
2	86014	46	90
2	86957	46.5	91
2	87764	47	92
2	88708	47.5	93
2	89516	48	94
2	90458	48.5	95
2	91267	49	96
2	92210	49.5	97
2	93017	50	98
2	93961	50.5	99
2	94769	51	100
3	2854	1.5	1
3	4489	2	2
3	5974	2.5	3
3	6874	3	4
3	7924	3.5	5
3	8824	4	6
3	9874	4.5	7
3	10774	5	8
3	11824	5.5	9
3	12724	6	10
3	13774	6.5	11
3	14674	7	12
3	15724	7.5	13
3	16624	8	14
3	17674	8.5	15
3	18574	9	16
3	19624	9.5	17
3	20525	10	18
3	21574	10.5	19
3	22475	11	20
3	23524	11.5	21
3	24431	12	22
3	25480	12.5	23
3	26373	13	24
3	27408	13.5	25
3	28295	14	26
3	29330	14.5	27
3	30221	15	28
3	31258	15.5	29
3	32144	16	30
3	33173	16.5	31
3	34056	17	32
3	35088	17.5	33
3	35976	18	34
3	36997	18.5	35
3	37867	19	36
3	38872	19.5	37
3	39738	20	38
3	40745	20.5	39
3	41607	21	40
3	42609	21.5	41
3	43463	22	42
3	44455	22.5	43
3	45305	23	44
3	46292	23.5	45
3	47135	24	46
3	48115	24.5	47
3	48951	25	48
3	49921	25.5	49
3	50752	26	50
3	51723	26.5	51
3	52555	27	52
3	53528	27.5	53
3	54364	28	54
3	55337	28.5	55
3	56168	29	56
3	57137	29.5	57
3	57962	30	58
3	58925	30.5	59
3	59743	31	60
3	60691	31.5	61
3	61500	32	62
3	62444	32.5	63
3	63252	33	64
3	64194	33.5	65
3	65003	34	66
3	65946	34.5	67
3	66753	35	68
3	67697	35.5	69
3	68505	36	70
3	69447	36.5	71
3	70256	37	72
3	71199	37.5	73
3	72006	38	74
3	72950	38.5	75
3	73758	39	76
3	74700	39.5	77
3	75509	40	78
3	76452	40.5	79
3	77259	41	80
3	78203	41.5	81
3	79011	42	82
3	79953	42.5	83
3	80762	43	84
3	81705	43.5	85
3	82512	44	86
3	83456	44.5	87
3	84264	45	88
3	85206	45.5	89
3	86015	46	90
3	86958	46.5	91
3	87765	47	92
3	88709	47.5	93
3	89517	48	94
3	90459	48.5	95
3	91268	49	96
3	92211	49.5	97
3	93018	50	98
3	93962	50.5	99
3	94770	51	100
4	2855	1.5	1
4	4490	2	2
4	5975	2.5	3
4	6875	3	4
4	7925	3.5	5
4	8825	4	6
4	9875	4.5	7
4	10775	5	8
4	11825	5.5	9
4	12725	6	10
4	13775	6.5	11
4	14675	7	12
4	15725	7.5	13
4	16625	8	14
4	17675	8.5	15
4	18575	9	16
4	19625	9.5	17
4	20526	10	18
4	21575	10.5	19
4	22476	11	20
4	23525	11.5	21
4	24432	12	22
4	25481	12.5	23
4	26374	13	24
4	27409	13.5	25
4	28296	14	26
4	29331	14.5	27
4	30222	15	28
4	31259	15.5	29
4	32145	16	30
4	33174	16.5	31
4	34057	17	32
4	35089	17.5	33
4	35977	18	34
4	36998	18.5	35
4	37868	19	36
4	38873	19.5	37
4	39739	20	38
4	40746	20.5	39
4	41608	21	40
4	42610	21.5	41
4	43464	22	42
4	44456	22.5	43
4	45306	23	44
4	46293	23.5	45
4	47136	24	46
4	48116	24.5	47
4	48952	25	48
4	49922	25.5	49
4	50753	26	50
4	51724	26.5	51
4	52556	27	52
4	53529	27.5	53
4	54365	28	54
4	55338	28.5	55
4	56169	29	56
4	57138	29.5	57
4	57963	30	58
4	58926	30.5	59
4	59744	31	60
4	60692	31.5	61
4	61501	32	62
4	62445	32.5	63
4	63253	33	64
4	64195	33.5	65
4	65004	34	66
4	65947	34.5	67
4	66754	35	68
4	67698	35.5	69
4	68506	36	70
4	69448	36.5	71
4	70257	37	72
4	71200	37.5	73
4	72007	38	74
4	72951	38.5	75
4	73759	39	76
4	74701	39.5	77
4	75510	40	78
4	76453	40.5	79
4	77260	41	80
4	78204	41.5	81
4	79012	42	82
4	79954	42.5	83
4	80763	43	84
4	81706	43.5	85
4	82513	44	86
4	83457	44.5	87
4	84265	45	88
4	85207	45.5	89
4	86016	46	90
4	86959	46.5	91
4	87766	47	92
4	88710	47.5	93
4	89518	48	94
4	90460	48.5	95
4	91269	49	96
4	92212	49.5	97
4	93019	50	98
4	93963	50.5	99
4	94771	51	100
5	2856	1.5	1
5	4491	2	2
5	5976	2.5	3
5	6876	3	4
5	7926	3.5	5
5	8826	4	6
5	9876	4.5	7
5	10776	5	8
5	11826	5.5	9
5	12726	6	10
5	13776	6.5	11
5	14676	7	12
5	15726	7.5	13
5	16626	8	14
5	17676	8.5	15
5	18576	9	16
5	19626	9.5	17
5	20527	10	18
5	21576	10.5	19
5	22477	11	20
5	23526	11.5	21
5	24433	12	22
5	25482	12.5	23
5	26375	13	24
5	27410	13.5	25
5	28297	14	26
5	29332	14.5	27
5	30223	15	28
5	31260	15.5	29
5	32146	16	30
5	33175	16.5	31
5	34058	17	32
5	35090	17.5	33
5	35978	18	34
5	36999	18.5	35
5	37869	19	36
5	38874	19.5	37
5	39740	20	38
5	40747	20.5	39
5	41609	21	40
5	42611	21.5	41
5	43465	22	42
5	44457	22.5	43
5	45307	23	44
5	46294	23.5	45
5	47137	24	46
5	48117	24.5	47
5	48953	25	48
5	49923	25.5	49
5	50754	26	50
5	51725	26.5	51
5	52557	27	52
5	53530	27.5	53
5	54366	28	54
5	55339	28.5	55
5	56170	29	56
5	57139	29.5	57
5	57964	30	58
5	58927	30.5	59
5	59745	31	60
5	60693	31.5	61
5	61502	32	62
5	62446	32.5	63
5	63254	33	64
5	64196	33.5	65
5	65005	34	66
5	65948	34.5	67
5	66755	35	68
5	67699	35.5	69
5	68507	36	70
5	69449	36.5	71
5	70258	37	72
5	71201	37.5	73
5	72008	38	74
5	72952	38.5	75
5	73760	39	76
5	74702	39.5	77
5	75511	40	78
5	76454	40.5	79
5	77261	41	80
5	78205	41.5	81
5	79013	42	82
5	79955	42.5	83
5	80764	43	84
5	81707	43.5	85
5	82514	44	86
5	83458	44.5	87
5	84266	45	88
5	85208	45.5	89
5	86017	46	90
5	86960	46.5	91
5	87767	47	92
5	88711	47.5	93
5	89519	48	94
5	90461	48.5	95
5	91270	49	96
5	92213	49.5	97
5	93020	50	98
5	93964	50.5	99
5	94772	51	100
6	2857	1.5	1
6	4492	2	2
6	5977	2.5	3
6	6877	3	4
6	7927	3.5	5
6	8827	4	6
6	9877	4.5	7
6	10777	5	8
6	11827	5.5	9
6	12727	6	10
6	13777	6.5	11
6	14677	7	12
6	15727	7.5	13
6	16627	8	14
6	17677	8.5	15
6	18577	9	16
6	19627	9.5	17
6	20528	10	18
6	21577	10.5	19
6	22478	11	20
6	23527	11.5	21
6	24434	12	22
6	25483	12.5	23
6	26376	13	24
6	27411	13.5	25
6	28298	14	26
6	29333	14.5	27
6	30224	15	28
6	31261	15.5	29
6	32147	16	30
6	33176	16.5	31
6	34059	17	32
6	35091	17.5	33
6	35979	18	34
6	37000	18.5	35
6	37870	19	36
6	38875	19.5	37
6	39741	20	38
6	40748	20.5	39
6	41610	21	40
6	42612	21.5	41
6	43466	22	42
6	44458	22.5	43
6	45308	23	44
6	46295	23.5	45
6	47138	24	46
6	48118	24.5	47
6	48954	25	48
6	49924	25.5	49
6	50755	26	50
6	51726	26.5	51
6	52558	27	52
6	53531	27.5	53
6	54367	28	54
6	55340	28.5	55
6	56171	29	56
6	57140	29.5	57
6	57965	30	58
6	58928	30.5	59
6	59746	31	60
6	60694	31.5	61
6	61503	32	62
6	62447	32.5	63
6	63255	33	64
6	64197	33.5	65
6	65006	34	66
6	65949	34.5	67
6	66756	35	68
6	67700	35.5	69
6	68508	36	70
6	69450	36.5	71
6	70259	37	72
6	71202	37.5	73
6	72009	38	74
6	72953	38.5	75
6	73761	39	76
6	74703	39.5	77
6	75512	40	78
6	76455	40.5	79
6	77262	41	80
6	78206	41.5	81
6	79014	42	82
6	79956	42.5	83
6	80765	43	84
6	81708	43.5	85
6	82515	44	86
6	83459	44.5	87
6	84267	45	88
6	85209	45.5	89
6	86018	46	90
6	86961	46.5	91
6	87768	47	92
6	88712	47.5	93
6	89520	48	94
6	90462	48.5	95
6	91271	49	96
6	92214	49.5	97
6	93021	50	98
6	93965	50.5	99
6	94773	51	100
7	2858	1.5	1
7	4493	2	2
7	5978	2.5	3
7	6878	3	4
7	7928	3.5	5
7	8828	4	6
7	9878	4.5	7
7	10778	5	8
7	11828	5.5	9
7	12728	6	10
7	13778	6.5	11
7	14678	7	12
7	15728	7.5	13
7	16628	8	14
7	17678	8.5	15
7	18578	9	16
7	19628	9.5	17
7	20529	10	18
7	21578	10.5	19
7	22479	11	20
7	23528	11.5	21
7	24435	12	22
7	25484	12.5	23
7	26377	13	24
7	27412	13.5	25
7	28299	14	26
7	29334	14.5	27
7	30225	15	28
7	31262	15.5	29
7	32148	16	30
7	33177	16.5	31
7	34060	17	32
7	35092	17.5	33
7	35980	18	34
7	37001	18.5	35
7	37871	19	36
7	38876	19.5	37
7	39742	20	38
7	40749	20.5	39
7	41611	21	40
7	42613	21.5	41
7	43467	22	42
7	44459	22.5	43
7	45309	23	44
7	46296	23.5	45
7	47139	24	46
7	48119	24.5	47
7	48955	25	48
7	49925	25.5	49
7	50756	26	50
7	51727	26.5	51
7	52559	27	52
7	53532	27.5	53
7	54368	28	54
7	55341	28.5	55
7	56172	29	56
7	57141	29.5	57
7	57966	30	58
7	58929	30.5	59
7	59747	31	60
7	60695	31.5	61
7	61504	32	62
7	62448	32.5	63
7	63256	33	64
7	64198	33.5	65
7	65007	34	66
7	65950	34.5	67
7	66757	35	68
7	67701	35.5	69
7	68509	36	70
7	69451	36.5	71
7	70260	37	72
7	71203	37.5	73
7	72010	38	74
7	72954	38.5	75
7	73762	39	76
7	74704	39.5	77
7	75513	40	78
7	76456	40.5	79
7	77263	41	80
7	78207	41.5	81
7	79015	42	82
7	79957	42.5	83
7	80766	43	84
7	81709	43.5	85
7	82516	44	86
7	83460	44.5	87
7	84268	45	88
7	85210	45.5	89
7	86019	46	90
7	86962	46.5	91
7	87769	47	92
7	88713	47.5	93
7	89521	48	94
7	90463	48.5	95
7	91272	49	96
7	92215	49.5	97
7	93022	50	98
7	93966	50.5	99
7	94774	51	100
8	2859	1.5	1
8	4494	2	2
8	5979	2.5	3
8	6879	3	4
8	7929	3.5	5
8	8829	4	6
8	9879	4.5	7
8	10779	5	8
8	11829	5.5	9
8	12729	6	10
8	13779	6.5	11
8	14679	7	12
8	15729	7.5	13
8	16629	8	14
8	17679	8.5	15
8	18579	9	16
8	19629	9.5	17
8	20530	10	18
8	21579	10.5	19
8	22480	11	20
8	23529	11.5	21
8	24436	12	22
8	25485	12.5	23
8	26378	13	24
8	27413	13.5	25
8	28300	14	26
8	29335	14.5	27
8	30226	15	28
8	31263	15.5	29
8	32149	16	30
8	33178	16.5	31
8	34061	17	32
8	35093	17.5	33
8	35981	18	34
8	37002	18.5	35
8	37872	19	36
8	38877	19.5	37
8	39743	20	38
8	40750	20.5	39
8	41612	21	40
8	42614	21.5	41
8	43468	22	42
8	44460	22.5	43
8	45310	23	44
8	46297	23.5	45
8	47140	24	46
8	48120	24.5	47
8	48956	25	48
8	49926	25.5	49
8	50757	26	50
8	51728	26.5	51
8	52560	27	52
8	53533	27.5	53
8	54369	28	54
8	55342	28.5	55
8	56173	29	56
8	57142	29.5	57
8	57967	30	58
8	58930	30.5	59
8	59748	31	60
8	60696	31.5	61
8	61505	32	62
8	62449	32.5	63
8	63257	33	64
8	64199	33.5	65
8	65008	34	66
8	65951	34.5	67
8	66758	35	68
8	67702	35.5	69
8	68510	36	70
8	69452	36.5	71
8	70261	37	72
8	71204	37.5	73
8	72011	38	74
8	72955	38.5	75
8	73763	39	76
8	74705	39.5	77
8	75514	40	78
8	76457	40.5	79
8	77264	41	80
8	78208	41.5	81
8	79016	42	82
8	79958	42.5	83
8	80767	43	84
8	81710	43.5	85
8	82517	44	86
8	83461	44.5	87
8	84269	45	88
8	85211	45.5	89
8	86020	46	90
8	86963	46.5	91
8	87770	47	92
8	88714	47.5	93
8	89522	48	94
8	90464	48.5	95
8	91273	49	96
8	92216	49.5	97
8	93023	50	98
8	93967	50.5	99
8	94775	51	100
9	2860	1.5	1
9	4495	2	2
9	5980	2.5	3
9	6880	3	4
9	7930	3.5	5
9	8830	4	6
9	9880	4.5	7
9	10780	5	8
9	11830	5.5	9
9	12730	6	10
9	13780	6.5	11
9	14680	7	12
9	15730	7.5	13
9	16630	8	14
9	17680	8.5	15
9	18580	9	16
9	19630	9.5	17
9	20531	10	18
9	21580	10.5	19
9	22481	11	20
9	23530	11.5	21
9	24437	12	22
9	25486	12.5	23
9	26379	13	24
9	27414	13.5	25
9	28301	14	26
9	29336	14.5	27
9	30227	15	28
9	31264	15.5	29
9	32150	16	30
9	33179	16.5	31
9	34062	17	32
9	35094	17.5	33
9	35982	18	34
9	37003	18.5	35
9	37873	19	36
9	38878	19.5	37
9	39744	20	38
9	40751	20.5	39
9	41613	21	40
9	42615	21.5	41
9	43469	22	42
9	44461	22.5	43
9	45311	23	44
9	46298	23.5	45
9	47141	24	46
9	48121	24.5	47
9	48957	25	48
9	49927	25.5	49
9	50758	26	50
9	51729	26.5	51
9	52561	27	52
9	53534	27.5	53
9	54370	28	54
9	55343	28.5	55
9	56174	29	56
9	57143	29.5	57
9	57968	30	58
9	58931	30.5	59
9	59749	31	60
9	60697	31.5	61
9	61506	32	62
9	62450	32.5	63
9	63258	33	64
9	64200	33.5	65
9	65009	34	66
9	65952	34.5	67
9	66759	35	68
9	67703	35.5	69
9	68511	36	70
9	69453	36.5	71
9	70262	37	72
9	71205	37.5	73
9	72012	38	74
9	72956	38.5	75
9	73764	39	76
9	74706	39.5	77
9	75515	40	78
9	76458	40.5	79
9	77265	41	80
9	78209	41.5	81
9	79017	42	82
9	79959	42.5	83
9	80768	43	84
9	81711	43.5	85
9	82518	44	86
9	83462	44.5	87
9	84270	45	88
9	85212	45.5	89
9	86021	46	90
9	86964	46.5	91
9	87771	47	92
9	88715	47.5	93
9	89523	48	94
9	90465	48.5	95
9	91274	49	96
9	92217	49.5	97
9	93024	50	98
9	93968	50.5	99
9	94776	51	100
10	2861	1.5	1
10	4496	2	2
10	5981	2.5	3
10	6881	3	4
10	7931	3.5	5
10	8831	4	6
10	9881	4.5	7
10	10781	5	8
10	11831	5.5	9
10	12731	6	10
10	13781	6.5	11
10	14681	7	12
10	15731	7.5	13
10	16631	8	14
10	17681	8.5	15
10	18581	9	16
10	19631	9.5	17
10	20532	10	18
10	21581	10.5	19
10	22482	11	20
10	23531	11.5	21
10	24438	12	22
10	25487	12.5	23
10	26380	13	24
10	27415	13.5	25
10	28302	14	26
10	29337	14.5	27
10	30228	15	28
10	31265	15.5	29
10	32151	16	30
10	33180	16.5	31
10	34063	17	32
10	35095	17.5	33
10	35983	18	34
10	37004	18.5	35
10	37874	19	36
10	38879	19.5	37
10	39745	20	38
10	40752	20.5	39
10	41614	21	40
10	42616	21.5	41
10	43470	22	42
10	44462	22.5	43
10	45312	23	44
10	46299	23.5	45
10	47142	24	46
10	48122	24.5	47
10	48958	25	48
10	49928	25.5	49
10	50759	26	50
10	51730	26.5	51
10	52562	27	52
10	54356	27.9	53
10	55191	28.4	54
10	56161	28.9	55
11	2862	1.5	1
11	4497	2	2
11	5982	2.5	3
11	6882	3	4
11	7932	3.5	5
11	8832	4	6
11	9882	4.5	7
11	10782	5	8
11	11832	5.5	9
11	12732	6	10
11	13782	6.5	11
11	14682	7	12
11	15732	7.5	13
11	16632	8	14
11	17682	8.5	15
11	18582	9	16
11	19632	9.5	17
11	20533	10	18
11	21582	10.5	19
11	22483	11	20
11	23532	11.5	21
11	24439	12	22
11	25488	12.5	23
11	26381	13	24
11	27416	13.5	25
11	28303	14	26
11	29338	14.5	27
11	30229	15	28
11	31266	15.5	29
11	32152	16	30
11	33181	16.5	31
11	34064	17	32
11	35096	17.5	33
11	35984	18	34
11	37005	18.5	35
11	37875	19	36
11	38880	19.5	37
11	39746	20	38
11	40753	20.5	39
11	41615	21	40
11	42617	21.5	41
11	43471	22	42
11	44463	22.5	43
11	45313	23	44
11	46300	23.5	45
11	47143	24	46
11	48123	24.5	47
11	48959	25	48
11	49929	25.5	49
11	50760	26	50
11	51731	26.5	51
11	52563	27	52
11	53535	27.5	53
11	54371	28	54
11	55344	28.5	55
11	56175	29	56
11	57144	29.5	57
11	57969	30	58
11	58932	30.5	59
11	59750	31	60
11	60698	31.5	61
11	61507	32	62
11	62451	32.5	63
11	63259	33	64
11	64201	33.5	65
11	65010	34	66
11	65953	34.5	67
11	66760	35	68
11	67704	35.5	69
11	68512	36	70
11	69454	36.5	71
11	70263	37	72
11	71206	37.5	73
11	72013	38	74
11	72957	38.5	75
11	73765	39	76
11	74707	39.5	77
11	75516	40	78
11	76459	40.5	79
11	77266	41	80
11	78210	41.5	81
11	79018	42	82
11	79960	42.5	83
11	80769	43	84
11	81712	43.5	85
11	82519	44	86
11	83463	44.5	87
11	84271	45	88
11	85213	45.5	89
11	86022	46	90
11	86965	46.5	91
11	87772	47	92
11	88716	47.5	93
11	89524	48	94
11	90466	48.5	95
11	91275	49	96
11	92218	49.5	97
11	93025	50	98
11	93969	50.5	99
11	94777	51	100
12	2863	1.5	1
12	4498	2	2
12	5983	2.5	3
12	6883	3	4
12	7933	3.5	5
12	8833	4	6
12	9883	4.5	7
12	10783	5	8
12	11833	5.5	9
12	12733	6	10
12	13783	6.5	11
12	14683	7	12
12	15733	7.5	13
12	16633	8	14
12	17683	8.5	15
12	18583	9	16
12	19633	9.5	17
12	20534	10	18
12	21583	10.5	19
12	22484	11	20
12	23533	11.5	21
12	24440	12	22
12	25489	12.5	23
12	26382	13	24
12	27417	13.5	25
12	28304	14	26
12	29339	14.5	27
12	30230	15	28
12	31267	15.5	29
12	32153	16	30
12	33182	16.5	31
12	34065	17	32
12	35097	17.5	33
12	35985	18	34
12	37006	18.5	35
12	37876	19	36
12	38881	19.5	37
12	39747	20	38
12	40754	20.5	39
12	41616	21	40
12	42618	21.5	41
12	43472	22	42
12	44464	22.5	43
12	45314	23	44
12	46301	23.5	45
12	47144	24	46
12	48124	24.5	47
12	48960	25	48
12	49930	25.5	49
12	50761	26	50
12	51732	26.5	51
12	52564	27	52
12	53536	27.5	53
12	54372	28	54
12	55345	28.5	55
12	56176	29	56
12	57145	29.5	57
12	57970	30	58
12	58933	30.5	59
12	59751	31	60
12	60699	31.5	61
12	61508	32	62
12	62452	32.5	63
12	63260	33	64
12	64202	33.5	65
12	65011	34	66
12	65954	34.5	67
12	66761	35	68
12	67705	35.5	69
12	68513	36	70
12	69455	36.5	71
12	70264	37	72
12	71207	37.5	73
12	72014	38	74
12	72958	38.5	75
12	73766	39	76
12	74708	39.5	77
12	75517	40	78
12	76460	40.5	79
12	77267	41	80
12	78211	41.5	81
12	79019	42	82
12	79961	42.5	83
12	80770	43	84
12	81713	43.5	85
12	82520	44	86
12	83464	44.5	87
12	84272	45	88
12	85214	45.5	89
12	86023	46	90
12	86966	46.5	91
12	87773	47	92
12	88717	47.5	93
12	89525	48	94
12	90467	48.5	95
12	91276	49	96
12	92219	49.5	97
12	93026	50	98
12	93970	50.5	99
12	94778	51	100
13	2864	1.5	1
13	4499	2	2
13	5984	2.5	3
13	6884	3	4
13	7934	3.5	5
13	8834	4	6
13	9884	4.5	7
13	10784	5	8
13	11834	5.5	9
13	12734	6	10
13	13784	6.5	11
13	14684	7	12
13	15734	7.5	13
13	16634	8	14
13	17684	8.5	15
13	18584	9	16
13	19634	9.5	17
13	20535	10	18
13	21584	10.5	19
13	22485	11	20
13	23534	11.5	21
13	24441	12	22
13	25490	12.5	23
13	26383	13	24
13	27418	13.5	25
13	28305	14	26
13	29340	14.5	27
13	30231	15	28
13	31268	15.5	29
13	32154	16	30
13	33183	16.5	31
13	34066	17	32
13	35098	17.5	33
13	35986	18	34
13	37007	18.5	35
13	37877	19	36
13	38882	19.5	37
13	39748	20	38
13	40755	20.5	39
13	41617	21	40
13	42619	21.5	41
13	43473	22	42
13	44465	22.5	43
13	45315	23	44
13	46302	23.5	45
13	47145	24	46
13	48125	24.5	47
13	48961	25	48
13	49931	25.5	49
13	50762	26	50
13	51733	26.5	51
13	52565	27	52
13	53537	27.5	53
13	54373	28	54
13	55346	28.5	55
13	56177	29	56
13	57146	29.5	57
13	57971	30	58
13	58934	30.5	59
13	59752	31	60
13	60700	31.5	61
13	61509	32	62
13	62453	32.5	63
13	63261	33	64
13	64203	33.5	65
13	65012	34	66
13	65955	34.5	67
13	66762	35	68
13	67706	35.5	69
13	68514	36	70
13	69456	36.5	71
13	70265	37	72
13	71208	37.5	73
13	72015	38	74
13	72959	38.5	75
13	73767	39	76
13	74709	39.5	77
13	75518	40	78
13	76461	40.5	79
13	77268	41	80
13	78212	41.5	81
13	79020	42	82
13	79962	42.5	83
13	80771	43	84
13	81714	43.5	85
13	82521	44	86
13	83465	44.5	87
13	84273	45	88
13	85215	45.5	89
13	86024	46	90
13	86967	46.5	91
13	87774	47	92
13	88718	47.5	93
13	89526	48	94
13	90468	48.5	95
13	91277	49	96
13	92220	49.5	97
13	93027	50	98
13	93971	50.5	99
13	94779	51	100
14	2865	1.5	1
14	4500	2	2
14	5985	2.5	3
14	6885	3	4
14	7935	3.5	5
14	8835	4	6
14	9885	4.5	7
14	10785	5	8
14	11835	5.5	9
14	12735	6	10
14	13785	6.5	11
14	14685	7	12
14	15735	7.5	13
14	16635	8	14
14	17685	8.5	15
14	18585	9	16
14	19635	9.5	17
14	20536	10	18
14	21585	10.5	19
14	22486	11	20
14	23535	11.5	21
14	24442	12	22
14	25491	12.5	23
14	26384	13	24
14	27419	13.5	25
14	28306	14	26
14	29341	14.5	27
14	30232	15	28
14	31269	15.5	29
14	32155	16	30
14	33184	16.5	31
14	34067	17	32
14	35099	17.5	33
14	35987	18	34
14	37008	18.5	35
14	37878	19	36
14	38883	19.5	37
14	39749	20	38
14	40756	20.5	39
14	41618	21	40
14	42620	21.5	41
14	43474	22	42
14	44466	22.5	43
14	45316	23	44
14	46303	23.5	45
14	47146	24	46
14	48126	24.5	47
14	48962	25	48
14	49932	25.5	49
14	50763	26	50
14	51734	26.5	51
14	52566	27	52
14	53538	27.5	53
14	54374	28	54
14	55347	28.5	55
14	56178	29	56
14	57147	29.5	57
14	57972	30	58
14	58935	30.5	59
14	59753	31	60
14	60701	31.5	61
14	61510	32	62
14	62454	32.5	63
14	63262	33	64
14	64204	33.5	65
14	65013	34	66
14	65956	34.5	67
14	66763	35	68
14	67707	35.5	69
14	68515	36	70
14	69457	36.5	71
14	70266	37	72
14	71209	37.5	73
14	72016	38	74
14	72960	38.5	75
14	73768	39	76
14	74710	39.5	77
14	75519	40	78
14	76462	40.5	79
14	77269	41	80
14	78213	41.5	81
14	79021	42	82
14	79963	42.5	83
14	80772	43	84
14	81715	43.5	85
14	82522	44	86
14	83466	44.5	87
14	84274	45	88
14	85216	45.5	89
14	86025	46	90
14	86968	46.5	91
14	87775	47	92
14	88719	47.5	93
14	89527	48	94
14	90469	48.5	95
14	91278	49	96
14	92221	49.5	97
14	93028	50	98
14	93972	50.5	99
14	94780	51	100
15	2866	1.5	1
15	4501	2	2
15	5986	2.5	3
15	6886	3	4
15	7936	3.5	5
15	8836	4	6
15	9886	4.5	7
15	10786	5	8
15	11836	5.5	9
15	12736	6	10
15	13786	6.5	11
15	14686	7	12
15	15736	7.5	13
15	16636	8	14
15	17686	8.5	15
15	18586	9	16
15	19636	9.5	17
15	20537	10	18
15	21586	10.5	19
15	22487	11	20
15	23536	11.5	21
15	24443	12	22
15	25492	12.5	23
15	26385	13	24
15	27420	13.5	25
15	28307	14	26
15	29342	14.5	27
15	30233	15	28
15	31270	15.5	29
15	32156	16	30
15	33185	16.5	31
15	34068	17	32
15	35100	17.5	33
15	35988	18	34
15	37009	18.5	35
15	37879	19	36
15	38884	19.5	37
15	39750	20	38
15	40757	20.5	39
15	41619	21	40
15	42621	21.5	41
15	43475	22	42
15	44467	22.5	43
15	45317	23	44
15	46304	23.5	45
15	47147	24	46
15	48127	24.5	47
15	48963	25	48
15	49933	25.5	49
15	50764	26	50
15	51735	26.5	51
15	52567	27	52
15	53539	27.5	53
15	54375	28	54
15	55348	28.5	55
15	56179	29	56
15	57148	29.5	57
15	57973	30	58
15	58936	30.5	59
15	59754	31	60
15	60702	31.5	61
15	61511	32	62
15	62455	32.5	63
15	63263	33	64
15	64205	33.5	65
15	65014	34	66
15	65957	34.5	67
15	66764	35	68
15	67708	35.5	69
15	68516	36	70
15	69458	36.5	71
15	70267	37	72
15	71210	37.5	73
15	72017	38	74
15	72961	38.5	75
15	73769	39	76
15	74711	39.5	77
15	75520	40	78
15	76463	40.5	79
15	77270	41	80
15	78214	41.5	81
15	79022	42	82
15	79964	42.5	83
15	80773	43	84
15	81716	43.5	85
15	82523	44	86
15	83467	44.5	87
15	84275	45	88
15	85217	45.5	89
15	86026	46	90
15	86969	46.5	91
15	87776	47	92
15	88720	47.5	93
15	89528	48	94
15	90470	48.5	95
15	91279	49	96
15	92222	49.5	97
15	93029	50	98
15	93973	50.5	99
15	94781	51	100
16	2867	1.5	1
16	4502	2	2
16	5987	2.5	3
16	6887	3	4
16	7937	3.5	5
16	8837	4	6
16	9887	4.5	7
16	10787	5	8
16	11837	5.5	9
16	12737	6	10
16	13787	6.5	11
16	14687	7	12
16	15737	7.5	13
16	16637	8	14
16	17687	8.5	15
16	18587	9	16
16	19637	9.5	17
16	20538	10	18
16	21587	10.5	19
16	22488	11	20
16	23537	11.5	21
16	24444	12	22
16	25493	12.5	23
16	26386	13	24
16	27421	13.5	25
16	28308	14	26
16	29343	14.5	27
16	30234	15	28
16	31271	15.5	29
16	32157	16	30
16	33186	16.5	31
16	34069	17	32
16	35101	17.5	33
16	35989	18	34
16	37010	18.5	35
16	37880	19	36
16	38885	19.5	37
16	39751	20	38
16	40758	20.5	39
16	41620	21	40
16	42622	21.5	41
16	43476	22	42
16	44468	22.5	43
16	45318	23	44
16	46305	23.5	45
16	47148	24	46
16	48128	24.5	47
16	48964	25	48
16	49934	25.5	49
16	50765	26	50
16	51736	26.5	51
16	52568	27	52
16	53540	27.5	53
16	54376	28	54
16	55349	28.5	55
16	56180	29	56
16	57149	29.5	57
16	57974	30	58
16	58937	30.5	59
16	59755	31	60
16	60703	31.5	61
16	61512	32	62
16	62456	32.5	63
16	63264	33	64
16	64206	33.5	65
16	65015	34	66
16	65958	34.5	67
16	66765	35	68
16	67709	35.5	69
16	68517	36	70
16	69459	36.5	71
16	70268	37	72
16	71211	37.5	73
16	72018	38	74
16	72962	38.5	75
16	73770	39	76
16	74712	39.5	77
16	75521	40	78
16	76464	40.5	79