file 496178 1707516462                                          
version 3
run Tictoc2-0-20240209-19:07:39-18782
attr configname Tictoc2
attr datetime 20240209-19:07:39
attr datetimef 20240209-190739
attr experiment Tictoc2
attr inifile omnetpp.ini
attr iterationvars ""
attr iterationvarsd ""
attr iterationvarsf ""
attr measurement ""
attr network Tictoc2
attr processid 18782
attr repetition 0
attr replication #0
attr resultdir results
attr runnumber 0
attr seedset 0
config network Tictoc2

vector 0 Tictoc2.peer[0] HopCount ETV
vector 1 Tictoc2.peer[1] HopCount ETV
vector 2 Tictoc2.peer[2] HopCount ETV
vector 3 Tictoc2.peer[3] HopCount ETV
vector 4 Tictoc2.peer[4] HopCount ETV
vector 5 Tictoc2.peer[5] HopCount ETV
vector 6 Tictoc2.peer[6] HopCount ETV
vector 7 Tictoc2.peer[7] HopCount ETV
vector 8 Tictoc2.peer[8] HopCount ETV
vector 9 Tictoc2.peer[9] HopCount ETV
vector 10 Tictoc2.peer[10] HopCount ETV
vector 11 Tictoc2.peer[11] HopCount ETV
vector 12 Tictoc2.peer[12] HopCount ETV
vector 13 Tictoc2.peer[13] HopCount ETV
vector 14 Tictoc2.peer[14] HopCount ETV
vector 15 Tictoc2.peer[15] HopCount ETV
vector 16 Tictoc2.peer[16] HopCount ETV
vector 17 Tictoc2.peer[17] HopCount ETV
vector 18 Tictoc2.peer[18] HopCount ETV
vector 19 Tictoc2.peer[19] HopCount ETV
vector 20 Tictoc2.peer[20] HopCount ETV
vector 21 Tictoc2.peer[21] HopCount ETV
vector 22 Tictoc2.peer[22] HopCount ETV
vector 23 Tictoc2.peer[23] HopCount ETV
vector 24 Tictoc2.peer[24] HopCount ETV
vector 25 Tictoc2.peer[25] HopCount ETV
vector 26 Tictoc2.peer[26] HopCount ETV
vector 27 Tictoc2.peer[27] HopCount ETV
vector 28 Tictoc2.peer[28] HopCount ETV
vector 29 Tictoc2.peer[29] HopCount ETV
vector 30 Tictoc2.peer[30] HopCount ETV
vector 31 Tictoc2.peer[31] HopCount ETV
vector 32 Tictoc2.peer[32] HopCount ETV
vector 33 Tictoc2.peer[33] HopCount ETV
vector 34 Tictoc2.peer[34] HopCount ETV
vector 35 Tictoc2.peer[35] HopCount ETV
vector 36 Tictoc2.peer[36] HopCount ETV
vector 37 Tictoc2.peer[37] HopCount ETV
vector 38 Tictoc2.peer[38] HopCount ETV
vector 39 Tictoc2.peer[39] HopCount ETV
vector 40 Tictoc2.peer[40] HopCount ETV
vector 41 Tictoc2.peer[41] HopCount ETV
vector 42 Tictoc2.peer[42] HopCount ETV
vector 43 Tictoc2.peer[43] HopCount ETV
vector 44 Tictoc2.peer[44] HopCount ETV
vector 45 Tictoc2.peer[45] HopCount ETV
vector 46 Tictoc2.peer[46] HopCount ETV
vector 47 Tictoc2.peer[47] HopCount ETV
vector 48 Tictoc2.peer[48] HopCount ETV
vector 49 Tictoc2.peer[49] HopCount ETV
vector 50 Tictoc2.peer[50] HopCount ETV
vector 51 Tictoc2.peer[51] HopCount ETV
vector 52 Tictoc2.peer[52] HopCount ETV
vector 53 Tictoc2.peer[53] HopCount ETV
vector 54 Tictoc2.peer[54] HopCount ETV
vector 55 Tictoc2.peer[55] HopCount ETV
vector 56 Tictoc2.peer[56] HopCount ETV
vector 57 Tictoc2.peer[57] HopCount ETV
vector 58 Tictoc2.peer[58] HopCount ETV
vector 59 Tictoc2.peer[59] HopCount ETV
vector 60 Tictoc2.peer[60] HopCount ETV
vector 61 Tictoc2.peer[61] HopCount ETV
vector 62 Tictoc2.peer[62] HopCount ETV
vector 63 Tictoc2.peer[63] HopCount ETV
vector 64 Tictoc2.peer[64] HopCount ETV
vector 65 Tictoc2.peer[65] HopCount ETV
vector 66 Tictoc2.peer[66] HopCount ETV
vector 67 Tictoc2.peer[67] HopCount ETV
vector 68 Tictoc2.peer[68] HopCount ETV
vector 69 Tictoc2.peer[69] HopCount ETV
vector 70 Tictoc2.peer[70] HopCount ETV
vector 71 Tictoc2.peer[71] HopCount ETV
vector 72 Tictoc2.peer[72] HopCount ETV
vector 73 Tictoc2.peer[73] HopCount ETV
vector 74 Tictoc2.peer[74] HopCount ETV
vector 75 Tictoc2.peer[75] HopCount ETV
vector 76 Tictoc2.peer[76] HopCount ETV
vector 77 Tictoc2.peer[77] HopCount ETV
vector 78 Tictoc2.peer[78] HopCount ETV
vector 79 Tictoc2.peer[79] HopCount ETV
vector 80 Tictoc2.peer[80] HopCount ETV
vector 81 Tictoc2.peer[81] HopCount ETV
vector 82 Tictoc2.peer[82] HopCount ETV
vector 83 Tictoc2.peer[83] HopCount ETV
vector 84 Tictoc2.peer[84] HopCount ETV
vector 85 Tictoc2.peer[85] HopCount ETV
vector 86 Tictoc2.peer[86] HopCount ETV
vector 87 Tictoc2.peer[87] HopCount ETV
vector 88 Tictoc2.peer[88] HopCount ETV
vector 89 Tictoc2.peer[89] HopCount ETV
vector 90 Tictoc2.peer[90] HopCount ETV
vector 91 Tictoc2.peer[91] HopCount ETV
vector 92 Tictoc2.peer[92] HopCount ETV
vector 93 Tictoc2.peer[93] HopCount ETV
vector 94 Tictoc2.peer[94] HopCount ETV
vector 95 Tictoc2.peer[95] HopCount ETV
vector 96 Tictoc2.peer[96] HopCount ETV
vector 97 Tictoc2.peer[97] HopCount ETV
vector 98 Tictoc2.peer[98] HopCount ETV
vector 99 Tictoc2.peer[99] HopCount ETV
vector 100 Tictoc2.peer[100] HopCount ETV
vector 101 Tictoc2.peer[101] HopCount ETV
vector 102 Tictoc2.peer[102] HopCount ETV
vector 103 Tictoc2.peer[103] HopCount ETV
vector 104 Tictoc2.peer[104] HopCount ETV
vector 105 Tictoc2.peer[105] HopCount ETV
vector 106 Tictoc2.peer[106] HopCount ETV
vector 107 Tictoc2.peer[107] HopCount ETV
vector 108 Tictoc2.peer[108] HopCount ETV
vector 109 Tictoc2.peer[109] HopCount ETV
vector 110 Tictoc2.peer[110] HopCount ETV
vector 111 Tictoc2.peer[111] HopCount ETV
vector 112 Tictoc2.peer[112] HopCount ETV
vector 113 Tictoc2.peer[113] HopCount ETV
vector 114 Tictoc2.peer[114] HopCount ETV
vector 115 Tictoc2.peer[115] HopCount ETV
vector 116 Tictoc2.peer[116] HopCount ETV
vector 117 Tictoc2.peer[117] HopCount ETV
vector 118 Tictoc2.peer[118] HopCount ETV
vector 119 Tictoc2.peer[119] HopCount ETV
vector 120 Tictoc2.peer[120] HopCount ETV
vector 121 Tictoc2.peer[121] HopCount ETV
vector 122 Tictoc2.peer[122] HopCount ETV
vector 123 Tictoc2.peer[123] HopCount ETV
vector 124 Tictoc2.peer[124] HopCount ETV
vector 125 Tictoc2.peer[125] HopCount ETV
vector 126 Tictoc2.peer[126] HopCount ETV
vector 127 Tictoc2.peer[127] HopCount ETV
vector 128 Tictoc2.peer[128] HopCount ETV
vector 129 Tictoc2.peer[129] HopCount ETV
vector 130 Tictoc2.peer[130] HopCount ETV
vector 131 Tictoc2.peer[131] HopCount ETV
vector 132 Tictoc2.peer[132] HopCount ETV
vector 133 Tictoc2.peer[133] HopCount ETV
vector 134 Tictoc2.peer[134] HopCount ETV
vector 135 Tictoc2.peer[135] HopCount ETV
vector 136 Tictoc2.peer[136] HopCount ETV
vector 137 Tictoc2.peer[137] HopCount ETV
vector 138 Tictoc2.peer[138] HopCount ETV
vector 139 Tictoc2.peer[139] HopCount ETV
vector 140 Tictoc2.peer[140] HopCount ETV
vector 141 Tictoc2.peer[141] HopCount ETV
vector 142 Tictoc2.peer[142] HopCount ETV
vector 143 Tictoc2.peer[143] HopCount ETV
vector 144 Tictoc2.peer[144] HopCount ETV
vector 145 Tictoc2.peer[145] HopCount ETV
vector 146 Tictoc2.peer[146] HopCount ETV
vector 147 Tictoc2.peer[147] HopCount ETV
vector 148 Tictoc2.peer[148] HopCount ETV
vector 149 Tictoc2.peer[149] HopCount ETV
vector 150 Tictoc2.peer[150] HopCount ETV
vector 151 Tictoc2.peer[151] HopCount ETV
vector 152 Tictoc2.peer[152] HopCount ETV
vector 153 Tictoc2.peer[153] HopCount ETV
vector 154 Tictoc2.peer[154] HopCount ETV
vector 155 Tictoc2.peer[155] HopCount ETV
vector 156 Tictoc2.peer[156] HopCount ETV
vector 157 Tictoc2.peer[157] HopCount ETV
vector 158 Tictoc2.peer[158] HopCount ETV
vector 159 Tictoc2.peer[159] HopCount ETV
vector 160 Tictoc2.peer[160] HopCount ETV
vector 161 Tictoc2.peer[161] HopCount ETV
vector 162 Tictoc2.peer[162] HopCount ETV
vector 163 Tictoc2.peer[163] HopCount ETV
vector 164 Tictoc2.peer[164] HopCount ETV
vector 165 Tictoc2.peer[165] HopCount ETV
vector 166 Tictoc2.peer[166] HopCount ETV
vector 167 Tictoc2.peer[167] HopCount ETV
vector 168 Tictoc2.peer[168] HopCount ETV
vector 169 Tictoc2.peer[169] HopCount ETV
vector 170 Tictoc2.peer[170] HopCount ETV
vector 171 Tictoc2.peer[171] HopCount ETV
vector 172 Tictoc2.peer[172] HopCount ETV
vector 173 Tictoc2.peer[173] HopCount ETV
vector 174 Tictoc2.peer[174] HopCount ETV
vector 175 Tictoc2.peer[175] HopCount ETV
vector 176 Tictoc2.peer[176] HopCount ETV
vector 177 Tictoc2.peer[177] HopCount ETV
vector 178 Tictoc2.peer[178] HopCount ETV
vector 179 Tictoc2.peer[179] HopCount ETV
vector 180 Tictoc2.peer[180] HopCount ETV
vector 181 Tictoc2.peer[181] HopCount ETV
vector 182 Tictoc2.peer[182] HopCount ETV
vector 183 Tictoc2.peer[183] HopCount ETV
vector 184 Tictoc2.peer[184] HopCount ETV
vector 185 Tictoc2.peer[185] HopCount ETV
vector 186 Tictoc2.peer[186] HopCount ETV
vector 187 Tictoc2.peer[187] HopCount ETV
vector 188 Tictoc2.peer[188] HopCount ETV
vector 189 Tictoc2.peer[189] HopCount ETV
vector 190 Tictoc2.peer[190] HopCount ETV
vector 191 Tictoc2.peer[191] HopCount ETV
vector 192 Tictoc2.peer[192] HopCount ETV
vector 193 Tictoc2.peer[193] HopCount ETV
vector 194 Tictoc2.peer[194] HopCount ETV
vector 195 Tictoc2.peer[195] HopCount ETV
vector 196 Tictoc2.peer[196] HopCount ETV
vector 197 Tictoc2.peer[197] HopCount ETV
vector 198 Tictoc2.peer[198] HopCount ETV
vector 199 Tictoc2.peer[199] HopCount ETV
vector 200 Tictoc2.peer[200] HopCount ETV
vector 201 Tictoc2.peer[201] HopCount ETV
vector 202 Tictoc2.peer[202] HopCount ETV
vector 203 Tictoc2.peer[203] HopCount ETV
vector 204 Tictoc2.peer[204] HopCount ETV
vector 205 Tictoc2.peer[205] HopCount ETV
vector 206 Tictoc2.peer[206] HopCount ETV
vector 207 Tictoc2.peer[207] HopCount ETV
vector 208 Tictoc2.peer[208] HopCount ETV
vector 209 Tictoc2.peer[209] HopCount ETV
vector 210 Tictoc2.peer[210] HopCount ETV
vector 211 Tictoc2.peer[211] HopCount ETV
vector 212 Tictoc2.peer[212] HopCount ETV
vector 213 Tictoc2.peer[213] HopCount ETV
vector 214 Tictoc2.peer[214] HopCount ETV
vector 215 Tictoc2.peer[215] HopCount ETV
vector 216 Tictoc2.peer[216] HopCount ETV
vector 217 Tictoc2.peer[217] HopCount ETV
vector 218 Tictoc2.peer[218] HopCount ETV
vector 219 Tictoc2.peer[219] HopCount ETV
vector 220 Tictoc2.peer[220] HopCount ETV
vector 221 Tictoc2.peer[221] HopCount ETV
vector 222 Tictoc2.peer[222] HopCount ETV
vector 223 Tictoc2.peer[223] HopCount ETV
vector 224 Tictoc2.peer[224] HopCount ETV
vector 225 Tictoc2.peer[225] HopCount ETV
vector 226 Tictoc2.peer[226] HopCount ETV
vector 227 Tictoc2.peer[227] HopCount ETV
vector 228 Tictoc2.peer[228] HopCount ETV
vector 229 Tictoc2.peer[229] HopCount ETV
vector 230 Tictoc2.peer[230] HopCount ETV
vector 231 Tictoc2.peer[231] HopCount ETV
vector 232 Tictoc2.peer[232] HopCount ETV
vector 233 Tictoc2.peer[233] HopCount ETV
vector 234 Tictoc2.peer[234] HopCount ETV
vector 235 Tictoc2.peer[235] HopCount ETV
vector 236 Tictoc2.peer[236] HopCount ETV
vector 237 Tictoc2.peer[237] HopCount ETV
vector 238 Tictoc2.peer[238] HopCount ETV
vector 239 Tictoc2.peer[239] HopCount ETV
vector 240 Tictoc2.peer[240] HopCount ETV
vector 241 Tictoc2.peer[241] HopCount ETV
vector 242 Tictoc2.peer[242] HopCount ETV
vector 243 Tictoc2.peer[243] HopCount ETV
vector 244 Tictoc2.peer[244] HopCount ETV
vector 245 Tictoc2.peer[245] HopCount ETV
vector 246 Tictoc2.peer[246] HopCount ETV
vector 247 Tictoc2.peer[247] HopCount ETV
vector 248 Tictoc2.peer[248] HopCount ETV
vector 249 Tictoc2.peer[249] HopCount ETV
vector 250 Tictoc2.peer[250] HopCount ETV
vector 251 Tictoc2.peer[251] HopCount ETV
vector 252 Tictoc2.peer[252] HopCount ETV
vector 253 Tictoc2.peer[253] HopCount ETV
vector 254 Tictoc2.peer[254] HopCount ETV
vector 255 Tictoc2.peer[255] HopCount ETV
vector 256 Tictoc2.peer[256] HopCount ETV
vector 257 Tictoc2.peer[257] HopCount ETV
vector 258 Tictoc2.peer[258] HopCount ETV
vector 259 Tictoc2.peer[259] HopCount ETV
vector 260 Tictoc2.peer[260] HopCount ETV
vector 261 Tictoc2.peer[261] HopCount ETV
vector 262 Tictoc2.peer[262] HopCount ETV
vector 263 Tictoc2.peer[263] HopCount ETV
vector 264 Tictoc2.peer[264] HopCount ETV
vector 265 Tictoc2.peer[265] HopCount ETV
vector 266 Tictoc2.peer[266] HopCount ETV
vector 267 Tictoc2.peer[267] HopCount ETV
vector 268 Tictoc2.peer[268] HopCount ETV
vector 269 Tictoc2.peer[269] HopCount ETV
vector 270 Tictoc2.peer[270] HopCount ETV
vector 271 Tictoc2.peer[271] HopCount ETV
vector 272 Tictoc2.peer[272] HopCount ETV
vector 273 Tictoc2.peer[273] HopCount ETV
vector 274 Tictoc2.peer[274] HopCount ETV
vector 275 Tictoc2.peer[275] HopCount ETV
vector 276 Tictoc2.peer[276] HopCount ETV
vector 277 Tictoc2.peer[277] HopCount ETV
vector 278 Tictoc2.peer[278] HopCount ETV
vector 279 Tictoc2.peer[279] HopCount ETV
vector 280 Tictoc2.peer[280] HopCount ETV
vector 281 Tictoc2.peer[281] HopCount ETV
vector 282 Tictoc2.peer[282] HopCount ETV
vector 283 Tictoc2.peer[283] HopCount ETV
vector 284 Tictoc2.peer[284] HopCount ETV
vector 285 Tictoc2.peer[285] HopCount ETV
vector 286 Tictoc2.peer[286] HopCount ETV
vector 287 Tictoc2.peer[287] HopCount ETV
vector 288 Tictoc2.peer[288] HopCount ETV
vector 289 Tictoc2.peer[289] HopCount ETV
vector 290 Tictoc2.peer[290] HopCount ETV
vector 291 Tictoc2.peer[291] HopCount ETV
vector 292 Tictoc2.peer[292] HopCount ETV
vector 293 Tictoc2.peer[293] HopCount ETV
vector 294 Tictoc2.peer[294] HopCount ETV
vector 295 Tictoc2.peer[295] HopCount ETV
vector 296 Tictoc2.peer[296] HopCount ETV
vector 297 Tictoc2.peer[297] HopCount ETV
vector 298 Tictoc2.peer[298] HopCount ETV
vector 299 Tictoc2.peer[299] HopCount ETV
vector 300 Tictoc2.peer[300] HopCount ETV
vector 301 Tictoc2.peer[301] HopCount ETV
vector 302 Tictoc2.peer[302] HopCount ETV
vector 303 Tictoc2.peer[303] HopCount ETV
vector 304 Tictoc2.peer[304] HopCount ETV
vector 305 Tictoc2.peer[305] HopCount ETV
vector 306 Tictoc2.peer[306] HopCount ETV
vector 307 Tictoc2.peer[307] HopCount ETV
vector 308 Tictoc2.peer[308] HopCount ETV
vector 309 Tictoc2.peer[309] HopCount ETV
vector 310 Tictoc2.peer[310] HopCount ETV
vector 311 Tictoc2.peer[311] HopCount ETV
vector 312 Tictoc2.peer[312] HopCount ETV
vector 313 Tictoc2.peer[313] HopCount ETV
vector 314 Tictoc2.peer[314] HopCount ETV
vector 315 Tictoc2.peer[315] HopCount ETV
vector 316 Tictoc2.peer[316] HopCount ETV
vector 317 Tictoc2.peer[317] HopCount ETV
vector 318 Tictoc2.peer[318] HopCount ETV
vector 319 Tictoc2.peer[319] HopCount ETV
vector 320 Tictoc2.peer[320] HopCount ETV
vector 321 Tictoc2.peer[321] HopCount ETV
vector 322 Tictoc2.peer[322] HopCount ETV
vector 323 Tictoc2.peer[323] HopCount ETV
vector 324 Tictoc2.peer[324] HopCount ETV
vector 325 Tictoc2.peer[325] HopCount ETV
vector 326 Tictoc2.peer[326] HopCount ETV
vector 327 Tictoc2.peer[327] HopCount ETV
vector 328 Tictoc2.peer[328] HopCount ETV
vector 329 Tictoc2.peer[329] HopCount ETV
vector 330 Tictoc2.peer[330] HopCount ETV
vector 331 Tictoc2.peer[331] HopCount ETV
vector 332 Tictoc2.peer[332] HopCount ETV
vector 333 Tictoc2.peer[333] HopCount ETV
vector 334 Tictoc2.peer[334] HopCount ETV
vector 335 Tictoc2.peer[335] HopCount ETV
vector 336 Tictoc2.peer[336] HopCount ETV
vector 337 Tictoc2.peer[337] HopCount ETV
vector 338 Tictoc2.peer[338] HopCount ETV
vector 339 Tictoc2.peer[339] HopCount ETV
vector 340 Tictoc2.peer[340] HopCount ETV
vector 341 Tictoc2.peer[341] HopCount ETV
vector 342 Tictoc2.peer[342] HopCount ETV
vector 343 Tictoc2.peer[343] HopCount ETV
vector 344 Tictoc2.peer[344] HopCount ETV
vector 345 Tictoc2.peer[345] HopCount ETV
vector 346 Tictoc2.peer[346] HopCount ETV
vector 347 Tictoc2.peer[347] HopCount ETV
vector 348 Tictoc2.peer[348] HopCount ETV
vector 349 Tictoc2.peer[349] HopCount ETV
vector 350 Tictoc2.peer[350] HopCount ETV
vector 351 Tictoc2.peer[351] HopCount ETV
vector 352 Tictoc2.peer[352] HopCount ETV
vector 353 Tictoc2.peer[353] HopCount ETV
vector 354 Tictoc2.peer[354] HopCount ETV
vector 355 Tictoc2.peer[355] HopCount ETV
vector 356 Tictoc2.peer[356] HopCount ETV
vector 357 Tictoc2.peer[357] HopCount ETV
vector 358 Tictoc2.peer[358] HopCount ETV
vector 359 Tictoc2.peer[359] HopCount ETV
vector 360 Tictoc2.peer[360] HopCount ETV
vector 361 Tictoc2.peer[361] HopCount ETV
vector 362 Tictoc2.peer[362] HopCount ETV
vector 363 Tictoc2.peer[363] HopCount ETV
vector 364 Tictoc2.peer[364] HopCount ETV
vector 365 Tictoc2.peer[365] HopCount ETV
vector 366 Tictoc2.peer[366] HopCount ETV
vector 367 Tictoc2.peer[367] HopCount ETV
vector 368 Tictoc2.peer[368] HopCount ETV
vector 369 Tictoc2.peer[369] HopCount ETV
vector 370 Tictoc2.peer[370] HopCount ETV
vector 371 Tictoc2.peer[371] HopCount ETV
vector 372 Tictoc2.peer[372] HopCount ETV
vector 373 Tictoc2.peer[373] HopCount ETV
vector 374 Tictoc2.peer[374] HopCount ETV
vector 375 Tictoc2.peer[375] HopCount ETV
vector 376 Tictoc2.peer[376] HopCount ETV
vector 377 Tictoc2.peer[377] HopCount ETV
vector 378 Tictoc2.peer[378] HopCount ETV
vector 379 Tictoc2.peer[379] HopCount ETV
vector 380 Tictoc2.peer[380] HopCount ETV
vector 381 Tictoc2.peer[381] HopCount ETV
vector 382 Tictoc2.peer[382] HopCount ETV
vector 383 Tictoc2.peer[383] HopCount ETV
vector 384 Tictoc2.peer[384] HopCount ETV
vector 385 Tictoc2.peer[385] HopCount ETV
vector 386 Tictoc2.peer[386] HopCount ETV
vector 387 Tictoc2.peer[387] HopCount ETV
vector 388 Tictoc2.peer[388] HopCount ETV
vector 389 Tictoc2.peer[389] HopCount ETV
vector 390 Tictoc2.peer[390] HopCount ETV
vector 391 Tictoc2.peer[391] HopCount ETV
vector 392 Tictoc2.peer[392] HopCount ETV
vector 393 Tictoc2.peer[393] HopCount ETV
vector 394 Tictoc2.peer[394] HopCount ETV
vector 395 Tictoc2.peer[395] HopCount ETV
vector 396 Tictoc2.peer[396] HopCount ETV
vector 397 Tictoc2.peer[397] HopCount ETV
vector 398 Tictoc2.peer[398] HopCount ETV
vector 399 Tictoc2.peer[399] HopCount ETV
vector 400 Tictoc2.peer[400] HopCount ETV
vector 401 Tictoc2.peer[401] HopCount ETV
vector 402 Tictoc2.peer[402] HopCount ETV
vector 403 Tictoc2.peer[403] HopCount ETV
vector 404 Tictoc2.peer[404] HopCount ETV
vector 405 Tictoc2.peer[405] HopCount ETV
vector 406 Tictoc2.peer[406] HopCount ETV
vector 407 Tictoc2.peer[407] HopCount ETV
vector 408 Tictoc2.peer[408] HopCount ETV
vector 409 Tictoc2.peer[409] HopCount ETV
vector 410 Tictoc2.peer[410] HopCount ETV
vector 411 Tictoc2.peer[411] HopCount ETV
vector 412 Tictoc2.peer[412] HopCount ETV
vector 413 Tictoc2.peer[413] HopCount ETV
vector 414 Tictoc2.peer[414] HopCount ETV
vector 415 Tictoc2.peer[415] HopCount ETV
vector 416 Tictoc2.peer[416] HopCount ETV
vector 417 Tictoc2.peer[417] HopCount ETV
vector 418 Tictoc2.peer[418] HopCount ETV
vector 419 Tictoc2.peer[419] HopCount ETV
vector 420 Tictoc2.peer[420] HopCount ETV
vector 421 Tictoc2.peer[421] HopCount ETV
vector 422 Tictoc2.peer[422] HopCount ETV
vector 423 Tictoc2.peer[423] HopCount ETV
vector 424 Tictoc2.peer[424] HopCount ETV
vector 425 Tictoc2.peer[425] HopCount ETV
vector 426 Tictoc2.peer[426] HopCount ETV
vector 427 Tictoc2.peer[427] HopCount ETV
vector 428 Tictoc2.peer[428] HopCount ETV
vector 429 Tictoc2.peer[429] HopCount ETV
vector 430 Tictoc2.peer[430] HopCount ETV
vector 431 Tictoc2.peer[431] HopCount ETV
vector 432 Tictoc2.peer[432] HopCount ETV
vector 433 Tictoc2.peer[433] HopCount ETV
vector 434 Tictoc2.peer[434] HopCount ETV
vector 435 Tictoc2.peer[435] HopCount ETV
vector 436 Tictoc2.peer[436] HopCount ETV
vector 437 Tictoc2.peer[437] HopCount ETV
vector 438 Tictoc2.peer[438] HopCount ETV
vector 439 Tictoc2.peer[439] HopCount ETV
vector 440 Tictoc2.peer[440] HopCount ETV
vector 441 Tictoc2.peer[441] HopCount ETV
vector 442 Tictoc2.peer[442] HopCount ETV
vector 443 Tictoc2.peer[443] HopCount ETV
vector 444 Tictoc2.peer[444] HopCount ETV
vector 445 Tictoc2.peer[445] HopCount ETV
vector 446 Tictoc2.peer[446] HopCount ETV
vector 447 Tictoc2.peer[447] HopCount ETV
vector 448 Tictoc2.peer[448] HopCount ETV
vector 449 Tictoc2.peer[449] HopCount ETV
vector 450 Tictoc2.peer[450] HopCount ETV
vector 451 Tictoc2.peer[451] HopCount ETV
vector 452 Tictoc2.peer[452] HopCount ETV
vector 453 Tictoc2.peer[453] HopCount ETV
vector 454 Tictoc2.peer[454] HopCount ETV
vector 455 Tictoc2.peer[455] HopCount ETV
vector 456 Tictoc2.peer[456] HopCount ETV
vector 457 Tictoc2.peer[457] HopCount ETV
vector 458 Tictoc2.peer[458] HopCount ETV
vector 459 Tictoc2.peer[459] HopCount ETV
vector 460 Tictoc2.peer[460] HopCount ETV
vector 461 Tictoc2.peer[461] HopCount ETV
vector 462 Tictoc2.peer[462] HopCount ETV
vector 463 Tictoc2.peer[463] HopCount ETV
vector 464 Tictoc2.peer[464] HopCount ETV
vector 465 Tictoc2.peer[465] HopCount ETV
vector 466 Tictoc2.peer[466] HopCount ETV
vector 467 Tictoc2.peer[467] HopCount ETV
vector 468 Tictoc2.peer[468] HopCount ETV
vector 469 Tictoc2.peer[469] HopCount ETV
vector 470 Tictoc2.peer[470] HopCount ETV
vector 471 Tictoc2.peer[471] HopCount ETV
vector 472 Tictoc2.peer[472] HopCount ETV
vector 473 Tictoc2.peer[473] HopCount ETV
vector 474 Tictoc2.peer[474] HopCount ETV
vector 475 Tictoc2.peer[475] HopCount ETV
vector 476 Tictoc2.peer[476] HopCount ETV
vector 477 Tictoc2.peer[477] HopCount ETV
vector 478 Tictoc2.peer[478] HopCount ETV
vector 479 Tictoc2.peer[479] HopCount ETV
vector 480 Tictoc2.peer[480] HopCount ETV
vector 481 Tictoc2.peer[481] HopCount ETV
vector 482 Tictoc2.peer[482] HopCount ETV
vector 483 Tictoc2.peer[483] HopCount ETV
vector 484 Tictoc2.peer[484] HopCount ETV
vector 485 Tictoc2.peer[485] HopCount ETV
vector 486 Tictoc2.peer[486] HopCount ETV
vector 487 Tictoc2.peer[487] HopCount ETV
vector 488 Tictoc2.peer[488] HopCount ETV
vector 489 Tictoc2.peer[489] HopCount ETV
vector 490 Tictoc2.peer[490] HopCount ETV
vector 491 Tictoc2.peer[491] HopCount ETV
vector 492 Tictoc2.peer[492] HopCount ETV
vector 493 Tictoc2.peer[493] HopCount ETV
vector 494 Tictoc2.peer[494] HopCount ETV
vector 495 Tictoc2.peer[495] HopCount ETV
vector 496 Tictoc2.peer[496] HopCount ETV
vector 497 Tictoc2.peer[497] HopCount ETV
vector 498 Tictoc2.peer[498] HopCount ETV
vector 499 Tictoc2.peer[499] HopCount ETV
0	21211 1602 9501 174889 1.5 54.4 100 1 100 5050 338350
1	22813 469 9502 96069 1.5 17.5 33 1 33 561 12529
2	23282 532 9503 105032 1.5 19.5 37 1 37 703 17575
3	23814 439 9504 91183 1.5 16.5 31 1 31 496 10416
4	24253 820 9505 137446 1.5 28.5 55 1 55 1540 56980
5	25073 469 9506 96072 1.5 17.5 33 1 33 561 12529
6	25542 1554 9507 175775 1.5 60.4 100 1 100 5050 338350
7	27096 1135 9508 160465 1.5 38.8 74 1 74 2775 137825
8	28231 820 9509 137449 1.5 28.5 55 1 55 1540 56980
9	29051 1151 9510 162246 1.5 39.9 73 1 73 2701 132349
10	30202 535 9511 100435 1.5 18.5 35 1 35 630 14910
11	30737 1055 9512 155371 1.5 35.9 65 1 65 2145 93665
12	31792 1711 9513 174111 1.5 52.9 100 1 100 5050 338350
13	33503 917 9514 141558 1.5 29.9 57 1 57 1653 63365
14	34420 278 9515 60518 1.5 10.5 19 1 19 190 2470
15	34698 637 9516 113513 1.5 21.5 41 1 41 861 23821
16	35335 535 9517 100439 1.5 18.5 35 1 35 630 14910
17	35870 1115 9518 155372 1.5 35.9 68 1 68 2346 107134
18	36985 1680 9519 175535 1.5 56.8 100 1 100 5050 338350
19	38665 851 9520 135898 1.5 27.9 53 1 53 1431 51039
20	39516 470 9521 91197 1.5 16.5 31 1 31 496 10416
21	39986 1136 9522 155298 1.5 35.9 68 1 68 2346 107134
22	41122 813 9523 138728 1.5 28.9 51 1 51 1326 45526
23	41935 542 9524 102479 1.5 18.9 35 1 35 630 14910
24	42477 1704 9525 172938 1.5 51.4 100 1 100 5050 338350
25	44181 470 9526 91200 1.5 16.5 31 1 31 496 10416
26	44651 603 9527 109152 1.5 20.5 39 1 39 780 20540
27	45254 673 9528 119119 1.5 22.9 43 1 43 946 27434
28	45927 446 9529 88795 1.5 15.9 29 1 29 435 8555
29	46373 1215 9530 159912 1.5 38.5 75 1 75 2850 143450
30	47588 1723 9531 173467 1.5 51.9 100 1 100 5050 338350
31	49311 406 9532 81483 1.5 14.5 27 1 27 378 6930
32	49717 342 9533 71265 1.5 12.5 23 1 23 276 4324
33	50059 1219 9534 160561 1.5 38.9 73 1 73 2701 132349
34	51278 721 9535 123177 1.5 24 46 1 46 1081 33511
35	51999 1177 9536 159730 1.5 38.4 71 1 71 2556 121836
36	53176 1664 9537 175491 1.5 56.6 100 1 100 5050 338350
37	54840 1093 9538 155333 1.5 35.9 66 1 66 2211 98021
38	55933 739 9539 124930 1.5 24.5 47 1 47 1128 35720
39	56672 1383 9540 157162 1.5 36.9 83 1 68 3199 156243
40	58055 569 9541 107045 1.5 19.9 37 1 37 703 17575
41	58624 246 9542 55512 1.5 9.5 17 1 17 153 1785
42	58870 2393 9543 174895 1.5 54.4 139 1 100 8202 598266
43	61263 671 9544 117372 1.5 22.5 43 1 43 946 27434
44	61934 1011 9545 147926 1.5 32.5 63 1 63 2016 85344
45	62945 502 9546 96100 1.5 17.5 33 1 33 561 12529
46	63447 1197 9547 158971 1.5 37.9 73 1 73 2701 132349
47	64644 550 9548 102443 1.5 18.9 35 1 35 630 14910
48	65194 1674 9549 175555 1.5 57 100 1 100 5050 338350
49	66868 963 9550 144031 1.5 30.9 59 1 59 1770 70210
50	67831 637 9551 113525 1.5 21.5 41 1 41 861 23821
51	68468 1278 9552 162219 1.5 39.9 76 1 76 2926 149226
52	69746 977 9553 145623 1.5 31.5 61 1 61 1891 77531
53	70723 834 9554 135839 1.5 27.9 51 1 51 1326 45526
54	71557 1674 9555 175285 1.5 55.6 100 1 100 5050 338350
55	73231 374 9556 76671 1.5 13.5 25 1 25 325 5525
56	73605 639 9557 114314 1.5 21.7 41 1 41 861 23821
57	74244 1185 9558 160468 1.5 38.8 72 1 72 2628 127020
58	75429 342 9559 71288 1.5 12.5 23 1 23 276 4324
59	75771 438 9560 86616 1.5 15.5 29 1 29 435 8555
60	76209 1698 9561 174898 1.5 54.4 100 1 100 5050 338350
61	77907 569 9562 105063 1.5 19.5 37 1 37 703 17575
62	78476 671 9563 117378 1.5 22.5 43 1 43 946 27434
63	79147 705 9564 121388 1.5 23.5 45 1 45 1035 31395
64	79852 875 9565 137455 1.5 28.5 55 1 55 1540 56980
65	80727 438 9566 86622 1.5 15.5 29 1 29 435 8555
66	81165 1698 9567 173435 1.5 51.9 100 1 100 5050 338350
67	82863 1137 9568 158735 1.5 37.8 70 1 70 2485 116795
68	84000 406 9569 81514 1.5 14.5 27 1 27 378 6930
69	84406 569 9570 107046 1.5 19.9 37 1 37 703 17575
70	84975 655 9571 118789 1.5 22.8 42 1 42 903 25585
71	85630 442 9572 88815 1.5 15.9 29 1 29 435 8555
72	86072 1674 9573 173454 1.5 51.9 100 1 100 5050 338350
73	87746 637 9574 113535 1.5 21.5 41 1 41 861 23821
74	88383 374 9575 76688 1.5 13.5 25 1 25 325 5525
75	88757 342 9576 71305 1.5 12.5 23 1 23 276 4324
76	89099 671 9577 117383 1.5 22.5 43 1 43 946 27434
77	89770 728 9578 122983 1.5 23.9 45 1 45 1035 31395
78	90498 1694 9579 174121 1.5 52.9 100 1 100 5050 338350
79	92192 569 9580 105074 1.5 19.5 37 1 37 703 17575
80	92761 1181 9581 158291 1.5 37.5 73 1 73 2701 132349
81	93942 246 9582 55552 1.5 9.5 17 1 17 153 1785
82	94188 603 9583 109178 1.5 20.5 39 1 39 780 20540
83	94791 246 9584 55554 1.5 9.5 17 1 17 153 1785
84	95037 1662 9585 175730 1.5 59.4 100 1 100 5050 338350
85	96699 643 9586 115355 1.5 21.9 41 1 41 861 23821
86	97342 1045 9587 150275 1.5 33.5 65 1 65 2145 93665
87	98387 544 9588 102468 1.5 18.9 35 1 35 630 14910
88	98931 705 9589 121396 1.5 23.5 45 1 45 1035 31395
89	99636 374 9590 76699 1.5 13.5 25 1 25 325 5525
90	100010 1709 9591 175099 1.5 55 100 1 100 5050 338350
91	101719 1166 9592 157976 1.5 37.4 70 1 70 2485 116795
92	102885 1157 9593 158288 1.5 37.5 71 1 71 2556 121836
93	104042 470 9594 91245 1.5 16.5 31 1 31 496 10416
94	104512 705 9595 121398 1.5 23.5 45 1 45 1035 31395
95	105217 671 9596 117391 1.5 22.5 43 1 43 946 27434
96	105888 2074 9597 175319 1.5 55.8 121 1 100 6885 499995
97	107962 763 9598 128054 1.5 25.4 48 1 48 1176 38024
98	108725 246 9599 55569 1.5 9.5 17 1 17 153 1785
99	108971 1065 9600 151165 1.5 33.9 65 1 65 2145 93665
100	110036 788 9601 125890 1.5 24.7 47 1 47 1128 35720
101	110824 1159 9602 153217 1.5 34.9 66 1 66 2211 98021
102	111983 1796 9603 174667 1.5 53.9 100 1 100 5050 338350
103	113779 297 9604 60601 1.5 10.5 19 1 19 190 2470
104	114076 1194 9605 155326 1.5 35.9 69 1 69 2415 111895
105	115270 263 9606 55576 1.5 9.5 17 1 17 153 1785
106	115533 678 9607 113548 1.5 21.5 41 1 41 861 23821
107	116211 1254 9608 158292 1.5 37.5 73 1 73 2701 132349
108	117465 1774 9609 174886 1.5 54.4 100 1 100 5050 338350
109	119239 331 9610 66228 1.5 11.5 21 1 21 231 3311
110	119570 297 9611 60607 1.5 10.5 19 1 19 190 2470
111	119867 1218 9612 157183 1.5 36.9 71 1 71 2556 121836
112	121085 501 9613 91258 1.5 16.5 31 1 31 496 10416
113	121586 433 9614 81544 1.5 14.5 27 1 27 378 6930
114	122019 1817 9615 174390 1.5 53.4 100 1 100 5050 338350
115	123836 678 9616 113552 1.5 21.5 41 1 41 861 23821
116	124514 365 9617 71335 1.5 12.5 23 1 23 276 4324
117	124879 467 9618 86655 1.5 15.5 29 1 29 435 8555
118	125346 1038 9619 145631 1.5 31.5 61 1 61 1891 77531
119	126384 1196 9620 155318 1.5 35.9 69 1 69 2415 111895
120	127580 1809 9621 173436 1.5 51.9 100 1 100 5050 338350
121	129389 786 9622 124949 1.5 24.5 47 1 47 1128 35720
122	130175 966 9623 141589 1.5 29.9 57 1 57 1653 63365
123	131141 910 9624 135868 1.5 27.9 53 1 53 1431 51039
124	132051 501 9625 91266 1.5 16.5 31 1 31 496 10416
125	132552 972 9626 141515 1.5 29.9 56 1 56 1596 60116
126	133524 1788 9627 175288 1.5 55.6 100 1 100 5050 338350
127	135312 1130 9628 151160 1.5 33.9 65 1 65 2145 93665
128	136442 727 9629 119073 1.5 22.9 43 1 43 946 27434
129	137169 467 9630 86667 1.5 15.5 29 1 29 435 8555
130	137636 1002 9631 142949 1.5 30.5 59 1 59 1770 70210
131	138638 1033 9632 144017 1.5 30.9 59 1 59 1770 70210
132	139671 1798 9633 175662 1.5 58 100 1 100 5050 338350
133	141469 1218 9634 156391 1.5 36.5 71 1 71 2556 121836
134	142687 678 9635 113560 1.5 21.5 41 1 41 861 23821
135	143365 858 9636 131558 1.5 26.5 51 1 51 1326 45526
136	144223 1110 9637 150279 1.5 33.5 65 1 65 2145 93665
137	145333 1110 9638 150280 1.5 33.5 65 1 65 2145 93665
138	146443 1778 9639 175383 1.5 56 100 1 100 5050 338350
139	148221 750 9640 121414 1.5 23.5 45 1 45 1035 31395
140	148971 399 9641 76740 1.5 13.5 25 1 25 325 5525
141	149370 369 9642 73656 1.5 12.9 23 1 23 276 4324
142	149739 750 9643 121415 1.5 23.5 45 1 45 1035 31395
143	150489 1092 9644 148867 1.5 32.9 63 1 63 2016 85344
144	151581 1776 9645 173469 1.5 51.9 100 1 100 5050 338350
145	153357 1292 9646 158942 1.5 37.9 73 1 73 2701 132349
146	154649 1038 9647 145636 1.5 31.5 61 1 61 1891 77531
147	155687 297 9648 60643 1.5 10.5 19 1 19 190 2470
148	155984 1002 9649 142955 1.5 30.5 59 1 59 1770 70210
149	156986 894 9650 134673 1.5 27.5 53 1 53 1431 51039
150	157880 1798 9651 173815 1.5 52.4 100 1 100 5050 338350
151	159678 714 9652 117416 1.5 22.5 43 1 43 946 27434
152	160392 714 9653 117417 1.5 22.5 43 1 43 946 27434
153	161106 1098 9654 151187 1.5 33.9 63 1 63 2016 85344
154	162204 894 9655 134674 1.5 27.5 53 1 53 1431 51039
155	163098 1242 9656 160553 1.5 38.9 70 1 70 2485 116795
156	164340 1790 9657 174670 1.5 53.9 100 1 100 5050 338350
157	166130 714 9658 117419 1.5 22.5 43 1 43 946 27434
158	166844 263 9659 55629 1.5 9.5 17 1 17 153 1785
159	167107 613 9660 107011 1.5 19.9 37 1 37 703 17575
160	167720 331 9661 66274 1.5 11.5 21 1 21 231 3311
161	168051 1079 9662 148869 1.5 32.9 62 1 62 1953 81375