version 3
run Tictoc2-0-20240206-12:20:29-6013
attr configname Tictoc2
attr datetime 20240206-12:20:29
attr datetimef 20240206-122029
attr experiment Tictoc2
attr inifile omnetpp.ini
attr iterationvars ""
attr iterationvarsd ""
attr iterationvarsf ""
attr measurement ""
attr network Tictoc2
attr processid 6013
attr repetition 0
attr replication #0
attr resultdir results
attr runnumber 0
attr seedset 0
config network Tictoc2

vector 0 Tictoc2.peer[0] HopCount ETV
vector 1 Tictoc2.peer[1] HopCount ETV
vector 2 Tictoc2.peer[2] HopCount ETV
vector 3 Tictoc2.peer[3] HopCount ETV
vector 4 Tictoc2.peer[4] HopCount ETV
vector 5 Tictoc2.peer[5] HopCount ETV
vector 6 Tictoc2.peer[6] HopCount ETV
vector 7 Tictoc2.peer[7] HopCount ETV
vector 8 Tictoc2.peer[8] HopCount ETV
vector 9 Tictoc2.peer[9] HopCount ETV
vector 10 Tictoc2.peer[10] HopCount ETV
vector 11 Tictoc2.peer[11] HopCount ETV
vector 12 Tictoc2.peer[12] HopCount ETV
vector 13 Tictoc2.peer[13] HopCount ETV
vector 14 Tictoc2.peer[14] HopCount ETV
vector 15 Tictoc2.peer[15] HopCount ETV
vector 16 Tictoc2.peer[16] HopCount ETV
vector 17 Tictoc2.peer[17] HopCount ETV
vector 18 Tictoc2.peer[18] HopCount ETV
vector 19 Tictoc2.peer[19] HopCount ETV
vector 20 Tictoc2.peer[20] HopCount ETV
vector 21 Tictoc2.peer[21] HopCount ETV
vector 22 Tictoc2.peer[22] HopCount ETV
vector 23 Tictoc2.peer[23] HopCount ETV
vector 24 Tictoc2.peer[24] HopCount ETV
vector 25 Tictoc2.peer[25] HopCount ETV
vector 26 Tictoc2.peer[26] HopCount ETV
vector 27 Tictoc2.peer[27] HopCount ETV
vector 28 Tictoc2.peer[28] HopCount ETV
vector 29 Tictoc2.peer[29] HopCount ETV
vector 30 Tictoc2.peer[30] HopCount ETV
vector 31 Tictoc2.peer[31] HopCount ETV
vector 32 Tictoc2.peer[32] HopCount ETV
vector 33 Tictoc2.peer[33] HopCount ETV
vector 34 Tictoc2.peer[34] HopCount ETV
vector 35 Tictoc2.peer[35] HopCount ETV
vector 36 Tictoc2.peer[36] HopCount ETV
vector 37 Tictoc2.peer[37] HopCount ETV
vector 38 Tictoc2.peer[38] HopCount ETV
vector 39 Tictoc2.peer[39] HopCount ETV
vector 40 Tictoc2.peer[40] HopCount ETV
vector 41 Tictoc2.peer[41] HopCount ETV
vector 42 Tictoc2.peer[42] HopCount ETV
vector 43 Tictoc2.peer[43] HopCount ETV
vector 44 Tictoc2.peer[44] HopCount ETV
vector 45 Tictoc2.peer[45] HopCount ETV
vector 46 Tictoc2.peer[46] HopCount ETV
vector 47 Tictoc2.peer[47] HopCount ETV
vector 48 Tictoc2.peer[48] HopCount ETV
vector 49 Tictoc2.peer[49] HopCount ETV
vector 50 Tictoc2.peer[50] HopCount ETV
vector 51 Tictoc2.peer[51] HopCount ETV
vector 52 Tictoc2.peer[52] HopCount ETV
vector 53 Tictoc2.peer[53] HopCount ETV
vector 54 Tictoc2.peer[54] HopCount ETV
vector 55 Tictoc2.peer[55] HopCount ETV
vector 56 Tictoc2.peer[56] HopCount ETV
vector 57 Tictoc2.peer[57] HopCount ETV
vector 58 Tictoc2.peer[58] HopCount ETV
vector 59 Tictoc2.peer[59] HopCount ETV
vector 60 Tictoc2.peer[60] HopCount ETV
vector 61 Tictoc2.peer[61] HopCount ETV
vector 62 Tictoc2.peer[62] HopCount ETV
vector 63 Tictoc2.peer[63] HopCount ETV
vector 64 Tictoc2.peer[64] HopCount ETV
vector 65 Tictoc2.peer[65] HopCount ETV
vector 66 Tictoc2.peer[66] HopCount ETV
vector 67 Tictoc2.peer[67] HopCount ETV
vector 68 Tictoc2.peer[68] HopCount ETV
vector 69 Tictoc2.peer[69] HopCount ETV
vector 70 Tictoc2.peer[70] HopCount ETV
vector 71 Tictoc2.peer[71] HopCount ETV
vector 72 Tictoc2.peer[72] HopCount ETV
vector 73 Tictoc2.peer[73] HopCount ETV
vector 74 Tictoc2.peer[74] HopCount ETV
vector 75 Tictoc2.peer[75] HopCount ETV
vector 76 Tictoc2.peer[76] HopCount ETV
vector 77 Tictoc2.peer[77] HopCount ETV
vector 78 Tictoc2.peer[78] HopCount ETV
vector 79 Tictoc2.peer[79] HopCount ETV
vector 80 Tictoc2.peer[80] HopCount ETV
vector 81 Tictoc2.peer[81] HopCount ETV
vector 82 Tictoc2.peer[82] HopCount ETV
vector 83 Tictoc2.peer[83] HopCount ETV
vector 84 Tictoc2.peer[84] HopCount ETV
vector 85 Tictoc2.peer[85] HopCount ETV
vector 86 Tictoc2.peer[86] HopCount ETV
vector 87 Tictoc2.peer[87] HopCount ETV
vector 88 Tictoc2.peer[88] HopCount ETV
vector 89 Tictoc2.peer[89] HopCount ETV
vector 90 Tictoc2.peer[90] HopCount ETV
vector 91 Tictoc2.peer[91] HopCount ETV
vector 92 Tictoc2.peer[92] HopCount ETV
vector 93 Tictoc2.peer[93] HopCount ETV
vector 94 Tictoc2.peer[94] HopCount ETV
vector 95 Tictoc2.peer[95] HopCount ETV
vector 96 Tictoc2.peer[96] HopCount ETV
vector 97 Tictoc2.peer[97] HopCount ETV
vector 98 Tictoc2.peer[98] HopCount ETV
vector 99 Tictoc2.peer[99] HopCount ETV
vector 100 Tictoc2.peer[100] HopCount ETV
vector 101 Tictoc2.peer[101] HopCount ETV
vector 102 Tictoc2.peer[102] HopCount ETV
vector 103 Tictoc2.peer[103] HopCount ETV
vector 104 Tictoc2.peer[104] HopCount ETV
vector 105 Tictoc2.peer[105] HopCount ETV
vector 106 Tictoc2.peer[106] HopCount ETV
vector 107 Tictoc2.peer[107] HopCount ETV
vector 108 Tictoc2.peer[108] HopCount ETV
vector 109 Tictoc2.peer[109] HopCount ETV
vector 110 Tictoc2.peer[110] HopCount ETV
vector 111 Tictoc2.peer[111] HopCount ETV
vector 112 Tictoc2.peer[112] HopCount ETV
vector 113 Tictoc2.peer[113] HopCount ETV
vector 114 Tictoc2.peer[114] HopCount ETV
vector 115 Tictoc2.peer[115] HopCount ETV
vector 116 Tictoc2.peer[116] HopCount ETV
vector 117 Tictoc2.peer[117] HopCount ETV
vector 118 Tictoc2.peer[118] HopCount ETV
vector 119 Tictoc2.peer[119] HopCount ETV
vector 120 Tictoc2.peer[120] HopCount ETV
vector 121 Tictoc2.peer[121] HopCount ETV
vector 122 Tictoc2.peer[122] HopCount ETV
vector 123 Tictoc2.peer[123] HopCount ETV
vector 124 Tictoc2.peer[124] HopCount ETV
vector 125 Tictoc2.peer[125] HopCount ETV
vector 126 Tictoc2.peer[126] HopCount ETV
vector 127 Tictoc2.peer[127] HopCount ETV
vector 128 Tictoc2.peer[128] HopCount ETV
vector 129 Tictoc2.peer[129] HopCount ETV
vector 130 Tictoc2.peer[130] HopCount ETV
vector 131 Tictoc2.peer[131] HopCount ETV
vector 132 Tictoc2.peer[132] HopCount ETV
vector 133 Tictoc2.peer[133] HopCount ETV
vector 134 Tictoc2.peer[134] HopCount ETV
vector 135 Tictoc2.peer[135] HopCount ETV
vector 136 Tictoc2.peer[136] HopCount ETV
vector 137 Tictoc2.peer[137] HopCount ETV
vector 138 Tictoc2.peer[138] HopCount ETV
vector 139 Tictoc2.peer[139] HopCount ETV
vector 140 Tictoc2.peer[140] HopCount ETV
vector 141 Tictoc2.peer[141] HopCount ETV
vector 142 Tictoc2.peer[142] HopCount ETV
vector 143 Tictoc2.peer[143] HopCount ETV
vector 144 Tictoc2.peer[144] HopCount ETV
vector 145 Tictoc2.peer[145] HopCount ETV
vector 146 Tictoc2.peer[146] HopCount ETV
vector 147 Tictoc2.peer[147] HopCount ETV
vector 148 Tictoc2.peer[148] HopCount ETV
vector 149 Tictoc2.peer[149] HopCount ETV
vector 150 Tictoc2.peer[150] HopCount ETV
vector 151 Tictoc2.peer[151] HopCount ETV
vector 152 Tictoc2.peer[152] HopCount ETV
vector 153 Tictoc2.peer[153] HopCount ETV
vector 154 Tictoc2.peer[154] HopCount ETV
vector 155 Tictoc2.peer[155] HopCount ETV
vector 156 Tictoc2.peer[156] HopCount ETV
vector 157 Tictoc2.peer[157] HopCount ETV
vector 158 Tictoc2.peer[158] HopCount ETV
vector 159 Tictoc2.peer[159] HopCount ETV
vector 160 Tictoc2.peer[160] HopCount ETV
vector 161 Tictoc2.peer[161] HopCount ETV
vector 162 Tictoc2.peer[162] HopCount ETV
vector 163 Tictoc2.peer[163] HopCount ETV
vector 164 Tictoc2.peer[164] HopCount ETV
vector 165 Tictoc2.peer[165] HopCount ETV
vector 166 Tictoc2.peer[166] HopCount ETV
vector 167 Tictoc2.peer[167] HopCount ETV
vector 168 Tictoc2.peer[168] HopCount ETV
vector 169 Tictoc2.peer[169] HopCount ETV
vector 170 Tictoc2.peer[170] HopCount ETV
vector 171 Tictoc2.peer[171] HopCount ETV
vector 172 Tictoc2.peer[172] HopCount ETV
vector 173 Tictoc2.peer[173] HopCount ETV
vector 174 Tictoc2.peer[174] HopCount ETV
vector 175 Tictoc2.peer[175] HopCount ETV
vector 176 Tictoc2.peer[176] HopCount ETV
vector 177 Tictoc2.peer[177] HopCount ETV
vector 178 Tictoc2.peer[178] HopCount ETV
vector 179 Tictoc2.peer[179] HopCount ETV
vector 180 Tictoc2.peer[180] HopCount ETV
vector 181 Tictoc2.peer[181] HopCount ETV
vector 182 Tictoc2.peer[182] HopCount ETV
vector 183 Tictoc2.peer[183] HopCount ETV
vector 184 Tictoc2.peer[184] HopCount ETV
vector 185 Tictoc2.peer[185] HopCount ETV
vector 186 Tictoc2.peer[186] HopCount ETV
vector 187 Tictoc2.peer[187] HopCount ETV
vector 188 Tictoc2.peer[188] HopCount ETV
vector 189 Tictoc2.peer[189] HopCount ETV
vector 190 Tictoc2.peer[190] HopCount ETV
vector 191 Tictoc2.peer[191] HopCount ETV
vector 192 Tictoc2.peer[192] HopCount ETV
vector 193 Tictoc2.peer[193] HopCount ETV
vector 194 Tictoc2.peer[194] HopCount ETV
vector 195 Tictoc2.peer[195] HopCount ETV
vector 196 Tictoc2.peer[196] HopCount ETV
vector 197 Tictoc2.peer[197] HopCount ETV
vector 198 Tictoc2.peer[198] HopCount ETV
vector 199 Tictoc2.peer[199] HopCount ETV
vector 200 Tictoc2.peer[200] HopCount ETV
vector 201 Tictoc2.peer[201] HopCount ETV
vector 202 Tictoc2.peer[202] HopCount ETV
vector 203 Tictoc2.peer[203] HopCount ETV
vector 204 Tictoc2.peer[204] HopCount ETV
vector 205 Tictoc2.peer[205] HopCount ETV
vector 206 Tictoc2.peer[206] HopCount ETV
vector 207 Tictoc2.peer[207] HopCount ETV
vector 208 Tictoc2.peer[208] HopCount ETV
vector 209 Tictoc2.peer[209] HopCount ETV
vector 210 Tictoc2.peer[210] HopCount ETV
vector 211 Tictoc2.peer[211] HopCount ETV
vector 212 Tictoc2.peer[212] HopCount ETV
vector 213 Tictoc2.peer[213] HopCount ETV
vector 214 Tictoc2.peer[214] HopCount ETV
vector 215 Tictoc2.peer[215] HopCount ETV
vector 216 Tictoc2.peer[216] HopCount ETV
vector 217 Tictoc2.peer[217] HopCount ETV
vector 218 Tictoc2.peer[218] HopCount ETV
vector 219 Tictoc2.peer[219] HopCount ETV
vector 220 Tictoc2.peer[220] HopCount ETV
vector 221 Tictoc2.peer[221] HopCount ETV
vector 222 Tictoc2.peer[222] HopCount ETV
vector 223 Tictoc2.peer[223] HopCount ETV
vector 224 Tictoc2.peer[224] HopCount ETV
vector 225 Tictoc2.peer[225] HopCount ETV
vector 226 Tictoc2.peer[226] HopCount ETV
vector 227 Tictoc2.peer[227] HopCount ETV
vector 228 Tictoc2.peer[228] HopCount ETV
vector 229 Tictoc2.peer[229] HopCount ETV
vector 230 Tictoc2.peer[230] HopCount ETV
vector 231 Tictoc2.peer[231] HopCount ETV
vector 232 Tictoc2.peer[232] HopCount ETV
vector 233 Tictoc2.peer[233] HopCount ETV
vector 234 Tictoc2.peer[234] HopCount ETV
vector 235 Tictoc2.peer[235] HopCount ETV
vector 236 Tictoc2.peer[236] HopCount ETV
vector 237 Tictoc2.peer[237] HopCount ETV
vector 238 Tictoc2.peer[238] HopCount ETV
vector 239 Tictoc2.peer[239] HopCount ETV
vector 240 Tictoc2.peer[240] HopCount ETV
vector 241 Tictoc2.peer[241] HopCount ETV
vector 242 Tictoc2.peer[242] HopCount ETV
vector 243 Tictoc2.peer[243] HopCount ETV
vector 244 Tictoc2.peer[244] HopCount ETV
vector 245 Tictoc2.peer[245] HopCount ETV
vector 246 Tictoc2.peer[246] HopCount ETV
vector 247 Tictoc2.peer[247] HopCount ETV
vector 248 Tictoc2.peer[248] HopCount ETV
vector 249 Tictoc2.peer[249] HopCount ETV
vector 250 Tictoc2.peer[250] HopCount ETV
vector 251 Tictoc2.peer[251] HopCount ETV
vector 252 Tictoc2.peer[252] HopCount ETV
vector 253 Tictoc2.peer[253] HopCount ETV
vector 254 Tictoc2.peer[254] HopCount ETV
vector 255 Tictoc2.peer[255] HopCount ETV
vector 256 Tictoc2.peer[256] HopCount ETV
vector 257 Tictoc2.peer[257] HopCount ETV
vector 258 Tictoc2.peer[258] HopCount ETV
vector 259 Tictoc2.peer[259] HopCount ETV
vector 260 Tictoc2.peer[260] HopCount ETV
vector 261 Tictoc2.peer[261] HopCount ETV
vector 262 Tictoc2.peer[262] HopCount ETV
vector 263 Tictoc2.peer[263] HopCount ETV
vector 264 Tictoc2.peer[264] HopCount ETV
vector 265 Tictoc2.peer[265] HopCount ETV
vector 266 Tictoc2.peer[266] HopCount ETV
vector 267 Tictoc2.peer[267] HopCount ETV
vector 268 Tictoc2.peer[268] HopCount ETV
vector 269 Tictoc2.peer[269] HopCount ETV
vector 270 Tictoc2.peer[270] HopCount ETV
vector 271 Tictoc2.peer[271] HopCount ETV
vector 272 Tictoc2.peer[272] HopCount ETV
vector 273 Tictoc2.peer[273] HopCount ETV
vector 274 Tictoc2.peer[274] HopCount ETV
vector 275 Tictoc2.peer[275] HopCount ETV
vector 276 Tictoc2.peer[276] HopCount ETV
vector 277 Tictoc2.peer[277] HopCount ETV
vector 278 Tictoc2.peer[278] HopCount ETV
vector 279 Tictoc2.peer[279] HopCount ETV
vector 280 Tictoc2.peer[280] HopCount ETV
vector 281 Tictoc2.peer[281] HopCount ETV
vector 282 Tictoc2.peer[282] HopCount ETV
vector 283 Tictoc2.peer[283] HopCount ETV
vector 284 Tictoc2.peer[284] HopCount ETV
vector 285 Tictoc2.peer[285] HopCount ETV
vector 286 Tictoc2.peer[286] HopCount ETV
vector 287 Tictoc2.peer[287] HopCount ETV
vector 288 Tictoc2.peer[288] HopCount ETV
vector 289 Tictoc2.peer[289] HopCount ETV
vector 290 Tictoc2.peer[290] HopCount ETV
vector 291 Tictoc2.peer[291] HopCount ETV
vector 292 Tictoc2.peer[292] HopCount ETV
vector 293 Tictoc2.peer[293] HopCount ETV
vector 294 Tictoc2.peer[294] HopCount ETV
vector 295 Tictoc2.peer[295] HopCount ETV
vector 296 Tictoc2.peer[296] HopCount ETV
vector 297 Tictoc2.peer[297] HopCount ETV
vector 298 Tictoc2.peer[298] HopCount ETV
vector 299 Tictoc2.peer[299] HopCount ETV
vector 300 Tictoc2.peer[300] HopCount ETV
vector 301 Tictoc2.peer[301] HopCount ETV
vector 302 Tictoc2.peer[302] HopCount ETV
vector 303 Tictoc2.peer[303] HopCount ETV
vector 304 Tictoc2.peer[304] HopCount ETV
vector 305 Tictoc2.peer[305] HopCount ETV
vector 306 Tictoc2.peer[306] HopCount ETV
vector 307 Tictoc2.peer[307] HopCount ETV
vector 308 Tictoc2.peer[308] HopCount ETV
vector 309 Tictoc2.peer[309] HopCount ETV
vector 310 Tictoc2.peer[310] HopCount ETV
vector 311 Tictoc2.peer[311] HopCount ETV
vector 312 Tictoc2.peer[312] HopCount ETV
vector 313 Tictoc2.peer[313] HopCount ETV
vector 314 Tictoc2.peer[314] HopCount ETV
vector 315 Tictoc2.peer[315] HopCount ETV
vector 316 Tictoc2.peer[316] HopCount ETV
vector 317 Tictoc2.peer[317] HopCount ETV
vector 318 Tictoc2.peer[318] HopCount ETV
vector 319 Tictoc2.peer[319] HopCount ETV
vector 320 Tictoc2.peer[320] HopCount ETV
vector 321 Tictoc2.peer[321] HopCount ETV
vector 322 Tictoc2.peer[322] HopCount ETV
vector 323 Tictoc2.peer[323] HopCount ETV
vector 324 Tictoc2.peer[324] HopCount ETV
vector 325 Tictoc2.peer[325] HopCount ETV
vector 326 Tictoc2.peer[326] HopCount ETV
vector 327 Tictoc2.peer[327] HopCount ETV
vector 328 Tictoc2.peer[328] HopCount ETV
vector 329 Tictoc2.peer[329] HopCount ETV
vector 330 Tictoc2.peer[330] HopCount ETV
vector 331 Tictoc2.peer[331] HopCount ETV
vector 332 Tictoc2.peer[332] HopCount ETV
vector 333 Tictoc2.peer[333] HopCount ETV
vector 334 Tictoc2.peer[334] HopCount ETV
vector 335 Tictoc2.peer[335] HopCount ETV
vector 336 Tictoc2.peer[336] HopCount ETV
vector 337 Tictoc2.peer[337] HopCount ETV
vector 338 Tictoc2.peer[338] HopCount ETV
vector 339 Tictoc2.peer[339] HopCount ETV
vector 340 Tictoc2.peer[340] HopCount ETV
vector 341 Tictoc2.peer[341] HopCount ETV
vector 342 Tictoc2.peer[342] HopCount ETV
vector 343 Tictoc2.peer[343] HopCount ETV
vector 344 Tictoc2.peer[344] HopCount ETV
vector 345 Tictoc2.peer[345] HopCount ETV
vector 346 Tictoc2.peer[346] HopCount ETV
vector 347 Tictoc2.peer[347] HopCount ETV
vector 348 Tictoc2.peer[348] HopCount ETV
vector 349 Tictoc2.peer[349] HopCount ETV
vector 350 Tictoc2.peer[350] HopCount ETV
vector 351 Tictoc2.peer[351] HopCount ETV
vector 352 Tictoc2.peer[352] HopCount ETV
vector 353 Tictoc2.peer[353] HopCount ETV
vector 354 Tictoc2.peer[354] HopCount ETV
vector 355 Tictoc2.peer[355] HopCount ETV
vector 356 Tictoc2.peer[356] HopCount ETV
vector 357 Tictoc2.peer[357] HopCount ETV
vector 358 Tictoc2.peer[358] HopCount ETV
vector 359 Tictoc2.peer[359] HopCount ETV
vector 360 Tictoc2.peer[360] HopCount ETV
vector 361 Tictoc2.peer[361] HopCount ETV
vector 362 Tictoc2.peer[362] HopCount ETV
vector 363 Tictoc2.peer[363] HopCount ETV
vector 364 Tictoc2.peer[364] HopCount ETV
vector 365 Tictoc2.peer[365] HopCount ETV
vector 366 Tictoc2.peer[366] HopCount ETV
vector 367 Tictoc2.peer[367] HopCount ETV
vector 368 Tictoc2.peer[368] HopCount ETV
vector 369 Tictoc2.peer[369] HopCount ETV
vector 370 Tictoc2.peer[370] HopCount ETV
vector 371 Tictoc2.peer[371] HopCount ETV
vector 372 Tictoc2.peer[372] HopCount ETV
vector 373 Tictoc2.peer[373] HopCount ETV
vector 374 Tictoc2.peer[374] HopCount ETV
vector 375 Tictoc2.peer[375] HopCount ETV
vector 376 Tictoc2.peer[376] HopCount ETV
vector 377 Tictoc2.peer[377] HopCount ETV
vector 378 Tictoc2.peer[378] HopCount ETV
vector 379 Tictoc2.peer[379] HopCount ETV
vector 380 Tictoc2.peer[380] HopCount ETV
vector 381 Tictoc2.peer[381] HopCount ETV
vector 382 Tictoc2.peer[382] HopCount ETV
vector 383 Tictoc2.peer[383] HopCount ETV
vector 384 Tictoc2.peer[384] HopCount ETV
vector 385 Tictoc2.peer[385] HopCount ETV
vector 386 Tictoc2.peer[386] HopCount ETV
vector 387 Tictoc2.peer[387] HopCount ETV
vector 388 Tictoc2.peer[388] HopCount ETV
vector 389 Tictoc2.peer[389] HopCount ETV
vector 390 Tictoc2.peer[390] HopCount ETV
vector 391 Tictoc2.peer[391] HopCount ETV
vector 392 Tictoc2.peer[392] HopCount ETV
vector 393 Tictoc2.peer[393] HopCount ETV
vector 394 Tictoc2.peer[394] HopCount ETV
vector 395 Tictoc2.peer[395] HopCount ETV
vector 396 Tictoc2.peer[396] HopCount ETV
vector 397 Tictoc2.peer[397] HopCount ETV
vector 398 Tictoc2.peer[398] HopCount ETV
vector 399 Tictoc2.peer[399] HopCount ETV
vector 400 Tictoc2.peer[400] HopCount ETV
vector 401 Tictoc2.peer[401] HopCount ETV
vector 402 Tictoc2.peer[402] HopCount ETV
vector 403 Tictoc2.peer[403] HopCount ETV
vector 404 Tictoc2.peer[404] HopCount ETV
vector 405 Tictoc2.peer[405] HopCount ETV
vector 406 Tictoc2.peer[406] HopCount ETV
vector 407 Tictoc2.peer[407] HopCount ETV
vector 408 Tictoc2.peer[408] HopCount ETV
vector 409 Tictoc2.peer[409] HopCount ETV
vector 410 Tictoc2.peer[410] HopCount ETV
vector 411 Tictoc2.peer[411] HopCount ETV
vector 412 Tictoc2.peer[412] HopCount ETV
vector 413 Tictoc2.peer[413] HopCount ETV
vector 414 Tictoc2.peer[414] HopCount ETV
vector 415 Tictoc2.peer[415] HopCount ETV
vector 416 Tictoc2.peer[416] HopCount ETV
vector 417 Tictoc2.peer[417] HopCount ETV
vector 418 Tictoc2.peer[418] HopCount ETV
vector 419 Tictoc2.peer[419] HopCount ETV
vector 420 Tictoc2.peer[420] HopCount ETV
vector 421 Tictoc2.peer[421] HopCount ETV
vector 422 Tictoc2.peer[422] HopCount ETV
vector 423 Tictoc2.peer[423] HopCount ETV
vector 424 Tictoc2.peer[424] HopCount ETV
vector 425 Tictoc2.peer[425] HopCount ETV
vector 426 Tictoc2.peer[426] HopCount ETV
vector 427 Tictoc2.peer[427] HopCount ETV
vector 428 Tictoc2.peer[428] HopCount ETV
vector 429 Tictoc2.peer[429] HopCount ETV
vector 430 Tictoc2.peer[430] HopCount ETV
vector 431 Tictoc2.peer[431] HopCount ETV
vector 432 Tictoc2.peer[432] HopCount ETV
vector 433 Tictoc2.peer[433] HopCount ETV
vector 434 Tictoc2.peer[434] HopCount ETV
vector 435 Tictoc2.peer[435] HopCount ETV
vector 436 Tictoc2.peer[436] HopCount ETV
vector 437 Tictoc2.peer[437] HopCount ETV
vector 438 Tictoc2.peer[438] HopCount ETV
vector 439 Tictoc2.peer[439] HopCount ETV
vector 440 Tictoc2.peer[440] HopCount ETV
vector 441 Tictoc2.peer[441] HopCount ETV
vector 442 Tictoc2.peer[442] HopCount ETV
vector 443 Tictoc2.peer[443] HopCount ETV
vector 444 Tictoc2.peer[444] HopCount ETV
vector 445 Tictoc2.peer[445] HopCount ETV
vector 446 Tictoc2.peer[446] HopCount ETV
vector 447 Tictoc2.peer[447] HopCount ETV
vector 448 Tictoc2.peer[448] HopCount ETV
vector 449 Tictoc2.peer[449] HopCount ETV
vector 450 Tictoc2.peer[450] HopCount ETV
vector 451 Tictoc2.peer[451] HopCount ETV
vector 452 Tictoc2.peer[452] HopCount ETV
vector 453 Tictoc2.peer[453] HopCount ETV
vector 454 Tictoc2.peer[454] HopCount ETV
vector 455 Tictoc2.peer[455] HopCount ETV
vector 456 Tictoc2.peer[456] HopCount ETV
vector 457 Tictoc2.peer[457] HopCount ETV
vector 458 Tictoc2.peer[458] HopCount ETV
vector 459 Tictoc2.peer[459] HopCount ETV
vector 460 Tictoc2.peer[460] HopCount ETV
vector 461 Tictoc2.peer[461] HopCount ETV
vector 462 Tictoc2.peer[462] HopCount ETV
vector 463 Tictoc2.peer[463] HopCount ETV
vector 464 Tictoc2.peer[464] HopCount ETV
vector 465 Tictoc2.peer[465] HopCount ETV
vector 466 Tictoc2.peer[466] HopCount ETV
vector 467 Tictoc2.peer[467] HopCount ETV
vector 468 Tictoc2.peer[468] HopCount ETV
vector 469 Tictoc2.peer[469] HopCount ETV
vector 470 Tictoc2.peer[470] HopCount ETV
vector 471 Tictoc2.peer[471] HopCount ETV
vector 472 Tictoc2.peer[472] HopCount ETV
vector 473 Tictoc2.peer[473] HopCount ETV
vector 474 Tictoc2.peer[474] HopCount ETV
vector 475 Tictoc2.peer[475] HopCount ETV
vector 476 Tictoc2.peer[476] HopCount ETV
vector 477 Tictoc2.peer[477] HopCount ETV
vector 478 Tictoc2.peer[478] HopCount ETV
vector 479 Tictoc2.peer[479] HopCount ETV
vector 480 Tictoc2.peer[480] HopCount ETV
vector 481 Tictoc2.peer[481] HopCount ETV
vector 482 Tictoc2.peer[482] HopCount ETV
vector 483 Tictoc2.peer[483] HopCount ETV
vector 484 Tictoc2.peer[484] HopCount ETV
vector 485 Tictoc2.peer[485] HopCount ETV
vector 486 Tictoc2.peer[486] HopCount ETV
vector 487 Tictoc2.peer[487] HopCount ETV
vector 488 Tictoc2.peer[488] HopCount ETV
vector 489 Tictoc2.peer[489] HopCount ETV
vector 490 Tictoc2.peer[490] HopCount ETV
vector 491 Tictoc2.peer[491] HopCount ETV
vector 492 Tictoc2.peer[492] HopCount ETV
vector 493 Tictoc2.peer[493] HopCount ETV
vector 494 Tictoc2.peer[494] HopCount ETV
vector 495 Tictoc2.peer[495] HopCount ETV
vector 496 Tictoc2.peer[496] HopCount ETV
vector 497 Tictoc2.peer[497] HopCount ETV
vector 498 Tictoc2.peer[498] HopCount ETV
vector 499 Tictoc2.peer[499] HopCount ETV
0	9501	1.5	1
0	14486	2	2
0	18471	2.5	3
0	20971	3	4
0	23971	3.5	5
0	26471	4	6
0	28971	4.5	7
0	31471	5	8
0	34471	5.5	9
0	36971	6	10
0	39471	6.5	11
0	41971	7	12
0	44971	7.5	13
0	47471	8	14
0	49971	8.5	15
0	52471	9	16
0	55471	9.5	17
0	57978	10	18
0	60492	10.5	19
0	63036	11	20
0	66074	11.5	21
0	68616	12	22
0	71139	12.5	23
0	73647	13	24
0	76597	13.5	25
0	79058	14	26
0	81505	14.5	27
0	83916	15	28
0	86750	15.5	29
0	89106	16	30
0	91439	16.5	31
0	93749	17	32
0	96484	17.5	33
0	98777	18	34
0	101077	18.5	35
0	103338	19	36
0	106004	19.5	37
0	108216	20	38
0	110400	20.5	39
0	112547	21	40
0	115088	21.5	41
0	117217	22	42
0	119336	22.5	43
0	121388	23	44
0	123821	23.5	45
0	125876	24	46
0	127944	24.5	47
0	129947	25	48
0	132321	25.5	49
0	134269	26	50
0	136219	26.5	51
0	138118	27	52
0	140345	27.5	53
0	142185	28	54
0	144030	28.5	55
0	145847	29	56
0	148025	29.5	57
0	149816	30	58
0	151633	30.5	59
0	153407	31	60
0	155503	31.5	61
0	157200	32	62
0	158895	32.5	63
0	160574	33	64
0	162585	33.5	65
0	164228	34	66
0	165905	34.5	67
0	167521	35	68
0	169452	35.5	69
0	171023	36	70
0	172611	36.5	71
0	174135	37	72
0	175945	37.5	73
1	9502	1.5	1
1	14487	2	2
1	18472	2.5	3
1	20972	3	4
1	23972	3.5	5
1	26472	4	6
1	28972	4.5	7
1	31472	5	8
1	34472	5.5	9
1	36972	6	10
1	39472	6.5	11
1	41972	7	12
1	44972	7.5	13
1	47472	8	14
1	49972	8.5	15
1	52472	9	16
1	55472	9.5	17
2	9503	1.5	1
2	14488	2	2
2	18473	2.5	3
2	20973	3	4
2	23973	3.5	5
2	26473	4	6
2	28973	4.5	7
2	31473	5	8
2	34473	5.5	9
2	36973	6	10
2	39473	6.5	11
2	41973	7	12
2	44973	7.5	13
2	47473	8	14
2	49973	8.5	15
2	52473	9	16
2	55473	9.5	17
2	57980	10	18
2	60493	10.5	19
2	63037	11	20
2	66075	11.5	21
2	68617	12	22
2	71140	12.5	23
2	73648	13	24
2	76598	13.5	25
2	79059	14	26
2	81506	14.5	27
2	83917	15	28
2	86751	15.5	29
2	89107	16	30
2	91440	16.5	31
2	93750	17	32
2	96485	17.5	33
2	98778	18	34
2	101078	18.5	35
2	103339	19	36
2	106005	19.5	37
2	108217	20	38
2	110401	20.5	39
2	112548	21	40
2	115089	21.5	41
2	117218	22	42
2	119337	22.5	43
2	121389	23	44
2	123822	23.5	45
2	125877	24	46
2	127945	24.5	47
2	129948	25	48
2	132322	25.5	49
2	134270	26	50
2	136220	26.5	51
2	138119	27	52
2	140346	27.5	53
2	142186	28	54
2	144031	28.5	55
2	145848	29	56
2	148026	29.5	57
2	149817	30	58
2	151634	30.5	59
2	153408	31	60
2	155504	31.5	61
2	157201	32	62
2	158896	32.5	63
2	160575	33	64
2	162586	33.5	65
2	164229	34	66
2	165906	34.5	67
2	167522	35	68
2	169453	35.5	69
2	171024	36	70
2	172612	36.5	71
2	174136	37	72
2	175946	37.5	73
2	177429	38	74
2	178917	38.5	75
2	180347	39	76
2	182050	39.5	77
2	183458	40	78
2	184917	40.5	79
2	186298	41	80
2	187906	41.5	81
2	189195	42	82
2	190439	42.5	83
2	191683	43	84
2	193175	43.5	85
2	194419	44	86
2	195663	44.5	87
2	196906	45	88
2	198399	45.5	89
2	199643	46	90
2	200886	46.5	91
2	202130	47	92
2	203623	47.5	93
2	204866	48	94
2	206110	48.5	95
2	207354	49	96
2	208846	49.5	97
2	210090	50	98
2	211334	50.5	99
2	212577	51	100
3	9504	1.5	1
3	14489	2	2
3	18474	2.5	3
3	20974	3	4
3	23974	3.5	5
3	26474	4	6
3	28974	4.5	7
3	31474	5	8
3	34474	5.5	9
3	36974	6	10
3	39474	6.5	11
3	41974	7	12
3	44974	7.5	13
3	47474	8	14
3	49974	8.5	15
3	52474	9	16
3	55474	9.5	17
3	57981	10	18
3	60494	10.5	19
3	63038	11	20
3	66076	11.5	21
3	68618	12	22
3	71141	12.5	23
3	73649	13	24
3	76599	13.5	25
3	79060	14	26
3	81507	14.5	27
3	83918	15	28
3	86752	15.5	29
3	89108	16	30
3	91441	16.5	31
3	93751	17	32
3	96486	17.5	33
3	98779	18	34
3	101079	18.5	35
3	103340	19	36
3	106006	19.5	37
3	108218	20	38
3	110402	20.5	39
3	112549	21	40
3	115090	21.5	41
3	117219	22	42
3	119338	22.5	43
3	121390	23	44
3	123823	23.5	45
3	125878	24	46
3	127946	24.5	47
3	129949	25	48
3	132323	25.5	49
3	134271	26	50
3	136221	26.5	51
3	138120	27	52
3	140347	27.5	53
3	142187	28	54
3	144032	28.5	55
3	145849	29	56
3	148027	29.5	57
3	149818	30	58
3	151635	30.5	59
3	153409	31	60
3	155505	31.5	61
4	9505	1.5	1
4	14490	2	2
4	18475	2.5	3
4	20975	3	4
4	23975	3.5	5
4	26475	4	6
4	28975	4.5	7
4	31475	5	8
4	34475	5.5	9
4	36975	6	10
4	39475	6.5	11
4	41975	7	12
4	44975	7.5	13
4	47475	8	14
4	49975	8.5	15
4	52475	9	16
4	55475	9.5	17
4	57982	10	18
4	60495	10.5	19
4	63039	11	20
4	66077	11.5	21
4	68619	12	22
4	71142	12.5	23
4	73650	13	24
4	76600	13.5	25
4	79061	14	26
4	81508	14.5	27
4	83919	15	28
4	86753	15.5	29
4	89109	16	30
4	91442	16.5	31
4	93752	17	32
4	96487	17.5	33
4	98780	18	34
4	101080	18.5	35
4	103341	19	36
4	106007	19.5	37
4	108219	20	38
4	110403	20.5	39
4	112550	21	40
4	115091	21.5	41
4	117220	22	42
4	119339	22.5	43
4	121391	23	44
4	123824	23.5	45
4	125879	24	46
4	127947	24.5	47
4	129950	25	48
4	132324	25.5	49
4	134272	26	50
4	136222	26.5	51
4	138121	27	52
4	140348	27.5	53
4	142188	28	54
4	144033	28.5	55
4	145850	29	56
4	148028	29.5	57
4	149819	30	58
4	151636	30.5	59
4	153410	31	60
4	155506	31.5	61
4	157203	32	62
4	158897	32.5	63
4	160576	33	64
4	162587	33.5	65
4	164230	34	66
4	165907	34.5	67
4	167523	35	68
4	169454	35.5	69
4	171025	36	70
4	172613	36.5	71
4	174137	37	72
4	175947	37.5	73
4	177430	38	74
4	178918	38.5	75
4	180348	39	76
4	182051	39.5	77
4	183459	40	78
4	184918	40.5	79
4	186299	41	80
4	187907	41.5	81
4	189196	42	82
4	190440	42.5	83
4	191684	43	84
4	193176	43.5	85
4	194420	44	86
4	195664	44.5	87
4	196907	45	88
4	198400	45.5	89
4	199644	46	90
4	200887	46.5	91
4	202131	47	92
4	203624	47.5	93
4	204867	48	94
4	206111	48.5	95
4	207355	49	96
4	208847	49.5	97
4	210091	50	98
4	211335	50.5	99
4	212578	51	100
5	9506	1.5	1
5	14491	2	2
5	18476	2.5	3
5	20976	3	4
5	23976	3.5	5
5	26476	4	6
5	28976	4.5	7
5	31476	5	8
5	34476	5.5	9
5	36976	6	10
5	39476	6.5	11
5	41976	7	12
5	44976	7.5	13
5	47476	8	14
5	49976	8.5	15
5	52476	9	16
5	55476	9.5	17
5	57983	10	18
5	60496	10.5	19
5	63040	11	20
5	66078	11.5	21
5	68620	12	22
5	71143	12.5	23
5	73651	13	24
5	76601	13.5	25
5	79062	14	26
5	81509	14.5	27
5	83920	15	28
5	89081	15.9	29
5	91407	16.4	30
5	93719	16.9	31
5	96010	17.4	32
5	98734	17.9	33
5	101020	18.4	34
5	103289	18.9	35
5	105528	19.4	36
5	108166	19.9	37
5	110345	20.4	38
5	112495	20.9	39
5	114623	21.4	40
5	117154	21.9	41
5	119269	22.4	42
5	121336	22.9	43
5	123368	23.4	44
5	125805	23.9	45
5	127866	24.4	46
5	129880	24.9	47
6	9507	1.5	1
6	14492	2	2
6	18477	2.5	3
6	20977	3	4
6	23977	3.5	5
6	26477	4	6
6	28977	4.5	7
6	31477	5	8
6	34477	5.5	9
6	36977	6	10
6	39477	6.5	11
6	41977	7	12
6	44977	7.5	13
6	47477	8	14
6	49977	8.5	15
6	52477	9	16
6	55477	9.5	17
6	57984	10	18
6	60497	10.5	19
6	63041	11	20
6	66079	11.5	21
6	68621	12	22
6	71144	12.5	23
6	73652	13	24
6	76602	13.5	25
6	79063	14	26
6	81510	14.5	27
6	83921	15	28
6	86754	15.5	29
6	89110	16	30
6	91443	16.5	31
6	93753	17	32
6	96488	17.5	33
6	98781	18	34
6	101081	18.5	35
6	103342	19	36
6	106008	19.5	37
6	108220	20	38
6	110404	20.5	39
6	112551	21	40
6	115092	21.5	41
6	117221	22	42
6	119340	22.5	43
6	121392	23	44
6	123825	23.5	45
6	125880	24	46
6	127948	24.5	47
6	129951	25	48
6	132325	25.5	49
6	134273	26	50
6	136223	26.5	51
6	138122	27	52
6	140349	27.5	53
6	142189	28	54
6	144034	28.5	55
6	145851	29	56
6	148029	29.5	57
6	149820	30	58
6	151637	30.5	59
6	153411	31	60
6	155507	31.5	61
6	157204	32	62
6	158898	32.5	63
6	160577	33	64
6	162588	33.5	65
6	164231	34	66
6	165908	34.5	67
6	167524	35	68
6	169455	35.5	69
6	171026	36	70
6	172614	36.5	71
6	174138	37	72
6	175948	37.5	73
6	177431	38	74
6	178919	38.5	75
6	180349	39	76
6	182052	39.5	77
6	183460	40	78
6	184919	40.5	79
6	186300	41	80
6	187908	41.5	81
6	189197	42	82
6	190441	42.5	83
6	191685	43	84
6	193177	43.5	85
6	194421	44	86
6	195665	44.5	87
6	196908	45	88
6	198401	45.5	89
6	199645	46	90
6	200888	46.5	91
6	202132	47	92
6	203625	47.5	93
6	204868	48	94
6	206112	48.5	95
6	207356	49	96
6	208848	49.5	97
6	210092	50	98
6	211336	50.5	99
6	212579	51	100
7	9508	1.5	1
7	14493	2	2
7	18478	2.5	3
7	20978	3	4
7	23978	3.5	5
7	26478	4	6
7	28978	4.5	7
7	31478	5	8
7	34478	5.5	9
7	36978	6	10
7	39478	6.5	11
7	41978	7	12
7	44978	7.5	13
7	47478	8	14
7	49978	8.5	15
7	52478	9	16
7	55478	9.5	17
7	57985	10	18
7	60498	10.5	19
7	63042	11	20
7	66080	11.5	21
7	68622	12	22
7	71145	12.5	23
7	73653	13	24
7	76603	13.5	25
7	79064	14	26
7	81511	14.5	27
8	9509	1.5	1
8	14494	2	2
8	18479	2.5	3
8	20979	3	4
8	23979	3.5	5
8	26479	4	6
8	28979	4.5	7
8	31479	5	8
8	34479	5.5	9
8	36979	6	10
8	39479	6.5	11
8	41979	7	12
8	44979	7.5	13
8	47479	8	14
8	49979	8.5	15
8	52479	9	16
8	55479	9.5	17
8	57986	10	18
8	60499	10.5	19
8	63043	11	20
8	66081	11.5	21
8	68623	12	22
8	71146	12.5	23
8	73654	13	24
8	76604	13.5	25
8	79065	14	26
8	81512	14.5	27
8	83923	15	28
8	86755	15.5	29
8	89111	16	30
8	91444	16.5	31
8	93754	17	32
8	96489	17.5	33
8	98782	18	34
8	101082	18.5	35
8	103343	19	36
8	106009	19.5	37
8	108221	20	38
8	110405	20.5	39
8	112552	21	40
8	115093	21.5	41
8	117222	22	42
8	119341	22.5	43
8	121393	23	44
8	123826	23.5	45
8	125881	24	46
8	127949	24.5	47
8	129952	25	48
8	132326	25.5	49
8	134274	26	50
8	136224	26.5	51
8	138123	27	52
8	140350	27.5	53
8	142190	28	54
8	144035	28.5	55