version 3
run Tictoc1-0-20240120-14:33:31-3776
attr configname Tictoc1
attr datetime 20240120-14:33:31
attr datetimef 20240120-143331
attr experiment Tictoc1
attr inifile omnetpp.ini
attr iterationvars ""
attr iterationvarsd ""
attr iterationvarsf ""
attr measurement ""
attr network Tictoc2
attr processid 3776
attr repetition 0
attr replication #0
attr resultdir results
attr runnumber 0
attr seedset 0
config network Tictoc2

vector 0 Tictoc2.peer[0] HopCount ETV
vector 1 Tictoc2.peer[1] HopCount ETV
vector 2 Tictoc2.peer[2] HopCount ETV
0	58	1.5	1
0	73	2	2
0	88	2.5	3
0	103	3	4
0	118	3.5	5
0	133	4	6
0	148	4.5	7
0	163	5	8
0	246	7.7	9
0	262	8.3	10
0	278	8.9	11
0	296	9.5	12
0	312	10.1	13
0	328	10.7	14
0	344	11.3	15
0	360	11.9	16
0	378	12.5	17
0	394	13.1	18
0	410	13.7	19
0	426	14.3	20
0	442	14.9	21
0	460	15.5	22
0	476	16.1	23
0	492	16.7	24
0	508	17.3	25
0	524	17.9	26
0	542	18.5	27
0	558	19.1	28
0	574	19.7	29
0	590	20.3	30
0	606	20.9	31
0	624	21.5	32
0	640	22.1	33
0	656	22.7	34
0	672	23.3	35
0	688	23.9	36
0	706	24.5	37
0	722	25.1	38
0	738	25.7	39
0	754	26.3	40
0	770	26.9	41
0	788	27.5	42
0	804	28.1	43
0	820	28.7	44
0	836	29.3	45
0	852	29.9	46
0	870	30.5	47
0	886	31.1	48
0	902	31.7	49
0	918	32.3	50
0	934	32.9	51
0	952	33.5	52
0	968	34.1	53
0	984	34.7	54
0	1000	35.3	55
0	1016	35.9	56
0	1034	36.5	57
0	1050	37.1	58
0	1066	37.7	59
0	1082	38.3	60
0	1098	38.9	61
0	1116	39.5	62
0	1132	40.1	63
1	59	1.5	1
1	74	2	2
1	89	2.5	3
1	104	3	4
1	119	3.5	5
1	134	4	6
1	149	4.5	7
1	164	5	8
1	179	5.5	9
1	192	6	10
1	208	6.5	11
1	224	7	12
1	241	7.5	13
1	256	8	14
1	269	8.5	15
1	283	9	16
1	297	9.5	17
1	310	10	18
1	324	10.5	19
1	338	11	20
1	351	11.5	21
1	365	12	22
1	379	12.5	23
1	392	13	24
1	406	13.5	25
1	420	14	26
1	433	14.5	27
1	447	15	28
1	461	15.5	29
1	474	16	30
1	488	16.5	31
1	502	17	32
1	515	17.5	33
1	529	18	34
1	543	18.5	35
1	556	19	36
1	570	19.5	37
1	584	20	38
1	597	20.5	39
1	611	21	40
1	625	21.5	41
1	638	22	42
1	652	22.5	43
1	666	23	44
1	679	23.5	45
1	693	24	46
1	707	24.5	47
1	720	25	48
1	734	25.5	49
1	748	26	50
1	761	26.5	51
1	775	27	52
1	789	27.5	53
1	802	28	54
1	816	28.5	55
1	830	29	56
1	843	29.5	57
1	857	30	58
1	871	30.5	59
1	884	31	60
1	898	31.5	61
1	912	32	62
1	925	32.5	63
1	939	33	64
1	953	33.5	65
1	966	34	66
1	980	34.5	67
1	994	35	68
1	1007	35.5	69
1	1021	36	70
1	1035	36.5	71
1	1048	37	72
1	1062	37.5	73
1	1076	38	74
1	1089	38.5	75
1	1103	39	76
1	1117	39.5	77
1	1130	40	78
1	1145	40.5	79
1	1158	41	80
1	1174	41.5	81
1	1186	42	82
1	1191	42.5	83
1	1196	43	84
1	1201	43.5	85
1	1206	44	86
1	1211	44.5	87
1	1216	45	88
1	1221	45.5	89
1	1226	46	90
1	1231	46.5	91
1	1236	47	92
1	1241	47.5	93
1	1246	48	94
1	1251	48.5	95
1	1256	49	96
1	1261	49.5	97
1	1266	50	98
1	1271	50.5	99
1	1276	51	100
2	60	1.5	1
2	75	2	2
2	90	2.5	3
2	105	3	4
2	120	3.5	5
2	135	4	6
2	150	4.5	7
2	165	5	8
2	180	5.5	9
2	193	6	10
2	209	6.5	11
2	225	7	12
2	242	7.5	13
2	257	8.1	14
2	273	8.7	15
2	289	9.3	16
2	305	9.9	17
2	323	10.5	18
2	339	11.1	19
2	355	11.7	20
2	371	12.3	21
2	387	12.9	22
2	405	13.5	23
2	421	14.1	24
2	437	14.7	25
2	453	15.3	26
2	469	15.9	27
2	487	16.5	28
2	503	17.1	29
2	519	17.7	30
2	535	18.3	31
2	551	18.9	32
2	569	19.5	33
2	585	20.1	34
2	601	20.7	35
2	617	21.3	36
2	633	21.9	37
2	651	22.5	38
2	667	23.1	39
2	683	23.7	40
2	699	24.3	41
2	715	24.9	42
2	733	25.5	43
2	749	26.1	44
2	765	26.7	45
2	781	27.3	46
2	797	27.9	47
2	815	28.5	48
2	831	29.1	49
2	847	29.7	50
2	863	30.3	51
2	879	30.9	52
2	897	31.5	53
2	913	32.1	54
2	929	32.7	55
2	945	33.3	56
2	961	33.9	57
2	979	34.5	58
2	995	35.1	59
2	1011	35.7	60
2	1027	36.3	61
2	1043	36.9	62
2	1061	37.5	63
2	1077	38.1	64
2	1093	38.7	65
2	1109	39.3	66
2	1125	39.9	67

