version 3
run Tictoc1-0-20240119-19:35:35-20223
attr configname Tictoc1
attr datetime 20240119-19:35:35
attr datetimef 20240119-193535
attr experiment Tictoc1
attr inifile omnetpp.ini
attr iterationvars ""
attr iterationvarsd ""
attr iterationvarsf ""
attr measurement ""
attr network Tictoc1
attr processid 20223
attr repetition 0
attr replication #0
attr resultdir results
attr runnumber 0
attr seedset 0
config network Tictoc1

vector 0 Tictoc1.peer[0] HopCount ETV
vector 1 Tictoc1.peer[1] HopCount ETV
vector 2 Tictoc1.peer[2] HopCount ETV
vector 3 Tictoc1.peer[3] HopCount ETV
vector 4 Tictoc1.peer[4] HopCount ETV
vector 5 Tictoc1.peer[5] HopCount ETV
vector 6 Tictoc1.peer[6] HopCount ETV
vector 7 Tictoc1.peer[7] HopCount ETV
vector 8 Tictoc1.peer[8] HopCount ETV
vector 9 Tictoc1.peer[9] HopCount ETV
vector 10 Tictoc1.peer[10] HopCount ETV
vector 11 Tictoc1.peer[11] HopCount ETV
vector 12 Tictoc1.peer[12] HopCount ETV
vector 13 Tictoc1.peer[13] HopCount ETV
vector 14 Tictoc1.peer[14] HopCount ETV
vector 15 Tictoc1.peer[15] HopCount ETV
vector 16 Tictoc1.peer[16] HopCount ETV
vector 17 Tictoc1.peer[17] HopCount ETV
vector 18 Tictoc1.peer[18] HopCount ETV
vector 19 Tictoc1.peer[19] HopCount ETV
vector 20 Tictoc1.peer[20] HopCount ETV
vector 21 Tictoc1.peer[21] HopCount ETV
vector 22 Tictoc1.peer[22] HopCount ETV
vector 23 Tictoc1.peer[23] HopCount ETV
vector 24 Tictoc1.peer[24] HopCount ETV
vector 25 Tictoc1.peer[25] HopCount ETV
vector 26 Tictoc1.peer[26] HopCount ETV
vector 27 Tictoc1.peer[27] HopCount ETV
vector 28 Tictoc1.peer[28] HopCount ETV
vector 29 Tictoc1.peer[29] HopCount ETV
vector 30 Tictoc1.peer[30] HopCount ETV
vector 31 Tictoc1.peer[31] HopCount ETV
vector 32 Tictoc1.peer[32] HopCount ETV
vector 33 Tictoc1.peer[33] HopCount ETV
vector 34 Tictoc1.peer[34] HopCount ETV
vector 35 Tictoc1.peer[35] HopCount ETV
vector 36 Tictoc1.peer[36] HopCount ETV
vector 37 Tictoc1.peer[37] HopCount ETV
vector 38 Tictoc1.peer[38] HopCount ETV
vector 39 Tictoc1.peer[39] HopCount ETV
vector 40 Tictoc1.peer[40] HopCount ETV
vector 41 Tictoc1.peer[41] HopCount ETV
vector 42 Tictoc1.peer[42] HopCount ETV
vector 43 Tictoc1.peer[43] HopCount ETV
vector 44 Tictoc1.peer[44] HopCount ETV
vector 45 Tictoc1.peer[45] HopCount ETV
vector 46 Tictoc1.peer[46] HopCount ETV
vector 47 Tictoc1.peer[47] HopCount ETV
vector 48 Tictoc1.peer[48] HopCount ETV
vector 49 Tictoc1.peer[49] HopCount ETV
vector 50 Tictoc1.peer[50] HopCount ETV
vector 51 Tictoc1.peer[51] HopCount ETV
vector 52 Tictoc1.peer[52] HopCount ETV
vector 53 Tictoc1.peer[53] HopCount ETV
vector 54 Tictoc1.peer[54] HopCount ETV
vector 55 Tictoc1.peer[55] HopCount ETV
vector 56 Tictoc1.peer[56] HopCount ETV
vector 57 Tictoc1.peer[57] HopCount ETV
vector 58 Tictoc1.peer[58] HopCount ETV
vector 59 Tictoc1.peer[59] HopCount ETV
vector 60 Tictoc1.peer[60] HopCount ETV
vector 61 Tictoc1.peer[61] HopCount ETV
vector 62 Tictoc1.peer[62] HopCount ETV
vector 63 Tictoc1.peer[63] HopCount ETV
vector 64 Tictoc1.peer[64] HopCount ETV
vector 65 Tictoc1.peer[65] HopCount ETV
vector 66 Tictoc1.peer[66] HopCount ETV
vector 67 Tictoc1.peer[67] HopCount ETV
vector 68 Tictoc1.peer[68] HopCount ETV
vector 69 Tictoc1.peer[69] HopCount ETV
vector 70 Tictoc1.peer[70] HopCount ETV
vector 71 Tictoc1.peer[71] HopCount ETV
vector 72 Tictoc1.peer[72] HopCount ETV
vector 73 Tictoc1.peer[73] HopCount ETV
vector 74 Tictoc1.peer[74] HopCount ETV
vector 75 Tictoc1.peer[75] HopCount ETV
vector 76 Tictoc1.peer[76] HopCount ETV
vector 77 Tictoc1.peer[77] HopCount ETV
vector 78 Tictoc1.peer[78] HopCount ETV
vector 79 Tictoc1.peer[79] HopCount ETV
vector 80 Tictoc1.peer[80] HopCount ETV
vector 81 Tictoc1.peer[81] HopCount ETV
vector 82 Tictoc1.peer[82] HopCount ETV
vector 83 Tictoc1.peer[83] HopCount ETV
vector 84 Tictoc1.peer[84] HopCount ETV
vector 85 Tictoc1.peer[85] HopCount ETV
vector 86 Tictoc1.peer[86] HopCount ETV
vector 87 Tictoc1.peer[87] HopCount ETV
vector 88 Tictoc1.peer[88] HopCount ETV
vector 89 Tictoc1.peer[89] HopCount ETV
vector 90 Tictoc1.peer[90] HopCount ETV
vector 91 Tictoc1.peer[91] HopCount ETV
vector 92 Tictoc1.peer[92] HopCount ETV
vector 93 Tictoc1.peer[93] HopCount ETV
vector 94 Tictoc1.peer[94] HopCount ETV
vector 95 Tictoc1.peer[95] HopCount ETV
vector 96 Tictoc1.peer[96] HopCount ETV
vector 97 Tictoc1.peer[97] HopCount ETV
vector 98 Tictoc1.peer[98] HopCount ETV
vector 99 Tictoc1.peer[99] HopCount ETV
vector 100 Tictoc1.peer[100] HopCount ETV
vector 101 Tictoc1.peer[101] HopCount ETV
vector 102 Tictoc1.peer[102] HopCount ETV
vector 103 Tictoc1.peer[103] HopCount ETV
vector 104 Tictoc1.peer[104] HopCount ETV
vector 105 Tictoc1.peer[105] HopCount ETV
vector 106 Tictoc1.peer[106] HopCount ETV
vector 107 Tictoc1.peer[107] HopCount ETV
vector 108 Tictoc1.peer[108] HopCount ETV
vector 109 Tictoc1.peer[109] HopCount ETV
vector 110 Tictoc1.peer[110] HopCount ETV
vector 111 Tictoc1.peer[111] HopCount ETV
vector 112 Tictoc1.peer[112] HopCount ETV
vector 113 Tictoc1.peer[113] HopCount ETV
vector 114 Tictoc1.peer[114] HopCount ETV
vector 115 Tictoc1.peer[115] HopCount ETV
vector 116 Tictoc1.peer[116] HopCount ETV
vector 117 Tictoc1.peer[117] HopCount ETV
vector 118 Tictoc1.peer[118] HopCount ETV
vector 119 Tictoc1.peer[119] HopCount ETV
vector 120 Tictoc1.peer[120] HopCount ETV
vector 121 Tictoc1.peer[121] HopCount ETV
vector 122 Tictoc1.peer[122] HopCount ETV
vector 123 Tictoc1.peer[123] HopCount ETV
vector 124 Tictoc1.peer[124] HopCount ETV
vector 125 Tictoc1.peer[125] HopCount ETV
vector 126 Tictoc1.peer[126] HopCount ETV
vector 127 Tictoc1.peer[127] HopCount ETV
vector 128 Tictoc1.peer[128] HopCount ETV
vector 129 Tictoc1.peer[129] HopCount ETV
vector 130 Tictoc1.peer[130] HopCount ETV
vector 131 Tictoc1.peer[131] HopCount ETV
vector 132 Tictoc1.peer[132] HopCount ETV
vector 133 Tictoc1.peer[133] HopCount ETV
vector 134 Tictoc1.peer[134] HopCount ETV
vector 135 Tictoc1.peer[135] HopCount ETV
vector 136 Tictoc1.peer[136] HopCount ETV
vector 137 Tictoc1.peer[137] HopCount ETV
vector 138 Tictoc1.peer[138] HopCount ETV
vector 139 Tictoc1.peer[139] HopCount ETV
vector 140 Tictoc1.peer[140] HopCount ETV
vector 141 Tictoc1.peer[141] HopCount ETV
vector 142 Tictoc1.peer[142] HopCount ETV
vector 143 Tictoc1.peer[143] HopCount ETV
vector 144 Tictoc1.peer[144] HopCount ETV
vector 145 Tictoc1.peer[145] HopCount ETV
vector 146 Tictoc1.peer[146] HopCount ETV
vector 147 Tictoc1.peer[147] HopCount ETV
vector 148 Tictoc1.peer[148] HopCount ETV
vector 149 Tictoc1.peer[149] HopCount ETV
vector 150 Tictoc1.peer[150] HopCount ETV
vector 151 Tictoc1.peer[151] HopCount ETV
vector 152 Tictoc1.peer[152] HopCount ETV
vector 153 Tictoc1.peer[153] HopCount ETV
vector 154 Tictoc1.peer[154] HopCount ETV
vector 155 Tictoc1.peer[155] HopCount ETV
vector 156 Tictoc1.peer[156] HopCount ETV
vector 157 Tictoc1.peer[157] HopCount ETV
vector 158 Tictoc1.peer[158] HopCount ETV
vector 159 Tictoc1.peer[159] HopCount ETV
vector 160 Tictoc1.peer[160] HopCount ETV
vector 161 Tictoc1.peer[161] HopCount ETV
vector 162 Tictoc1.peer[162] HopCount ETV
vector 163 Tictoc1.peer[163] HopCount ETV
vector 164 Tictoc1.peer[164] HopCount ETV
vector 165 Tictoc1.peer[165] HopCount ETV
vector 166 Tictoc1.peer[166] HopCount ETV
vector 167 Tictoc1.peer[167] HopCount ETV
vector 168 Tictoc1.peer[168] HopCount ETV
vector 169 Tictoc1.peer[169] HopCount ETV
vector 170 Tictoc1.peer[170] HopCount ETV
vector 171 Tictoc1.peer[171] HopCount ETV
vector 172 Tictoc1.peer[172] HopCount ETV
vector 173 Tictoc1.peer[173] HopCount ETV
vector 174 Tictoc1.peer[174] HopCount ETV
vector 175 Tictoc1.peer[175] HopCount ETV
vector 176 Tictoc1.peer[176] HopCount ETV
vector 177 Tictoc1.peer[177] HopCount ETV
vector 178 Tictoc1.peer[178] HopCount ETV
vector 179 Tictoc1.peer[179] HopCount ETV
vector 180 Tictoc1.peer[180] HopCount ETV
vector 181 Tictoc1.peer[181] HopCount ETV
vector 182 Tictoc1.peer[182] HopCount ETV
vector 183 Tictoc1.peer[183] HopCount ETV
vector 184 Tictoc1.peer[184] HopCount ETV
vector 185 Tictoc1.peer[185] HopCount ETV
vector 186 Tictoc1.peer[186] HopCount ETV
vector 187 Tictoc1.peer[187] HopCount ETV
vector 188 Tictoc1.peer[188] HopCount ETV
vector 189 Tictoc1.peer[189] HopCount ETV
vector 190 Tictoc1.peer[190] HopCount ETV
vector 191 Tictoc1.peer[191] HopCount ETV
vector 192 Tictoc1.peer[192] HopCount ETV
vector 193 Tictoc1.peer[193] HopCount ETV
vector 194 Tictoc1.peer[194] HopCount ETV
vector 195 Tictoc1.peer[195] HopCount ETV
vector 196 Tictoc1.peer[196] HopCount ETV
vector 197 Tictoc1.peer[197] HopCount ETV
vector 198 Tictoc1.peer[198] HopCount ETV
vector 199 Tictoc1.peer[199] HopCount ETV
vector 200 Tictoc1.peer[200] HopCount ETV
vector 201 Tictoc1.peer[201] HopCount ETV
vector 202 Tictoc1.peer[202] HopCount ETV
vector 203 Tictoc1.peer[203] HopCount ETV
vector 204 Tictoc1.peer[204] HopCount ETV
vector 205 Tictoc1.peer[205] HopCount ETV
vector 206 Tictoc1.peer[206] HopCount ETV
vector 207 Tictoc1.peer[207] HopCount ETV
vector 208 Tictoc1.peer[208] HopCount ETV
vector 209 Tictoc1.peer[209] HopCount ETV
vector 210 Tictoc1.peer[210] HopCount ETV
vector 211 Tictoc1.peer[211] HopCount ETV
vector 212 Tictoc1.peer[212] HopCount ETV
vector 213 Tictoc1.peer[213] HopCount ETV
vector 214 Tictoc1.peer[214] HopCount ETV
vector 215 Tictoc1.peer[215] HopCount ETV
vector 216 Tictoc1.peer[216] HopCount ETV
vector 217 Tictoc1.peer[217] HopCount ETV
vector 218 Tictoc1.peer[218] HopCount ETV
vector 219 Tictoc1.peer[219] HopCount ETV
vector 220 Tictoc1.peer[220] HopCount ETV
vector 221 Tictoc1.peer[221] HopCount ETV
vector 222 Tictoc1.peer[222] HopCount ETV
vector 223 Tictoc1.peer[223] HopCount ETV
vector 224 Tictoc1.peer[224] HopCount ETV
vector 225 Tictoc1.peer[225] HopCount ETV
vector 226 Tictoc1.peer[226] HopCount ETV
vector 227 Tictoc1.peer[227] HopCount ETV
vector 228 Tictoc1.peer[228] HopCount ETV
vector 229 Tictoc1.peer[229] HopCount ETV
vector 230 Tictoc1.peer[230] HopCount ETV
vector 231 Tictoc1.peer[231] HopCount ETV
vector 232 Tictoc1.peer[232] HopCount ETV
vector 233 Tictoc1.peer[233] HopCount ETV
vector 234 Tictoc1.peer[234] HopCount ETV
vector 235 Tictoc1.peer[235] HopCount ETV
vector 236 Tictoc1.peer[236] HopCount ETV
vector 237 Tictoc1.peer[237] HopCount ETV
vector 238 Tictoc1.peer[238] HopCount ETV
vector 239 Tictoc1.peer[239] HopCount ETV
vector 240 Tictoc1.peer[240] HopCount ETV
vector 241 Tictoc1.peer[241] HopCount ETV
vector 242 Tictoc1.peer[242] HopCount ETV
vector 243 Tictoc1.peer[243] HopCount ETV
vector 244 Tictoc1.peer[244] HopCount ETV
vector 245 Tictoc1.peer[245] HopCount ETV
vector 246 Tictoc1.peer[246] HopCount ETV
vector 247 Tictoc1.peer[247] HopCount ETV
vector 248 Tictoc1.peer[248] HopCount ETV
vector 249 Tictoc1.peer[249] HopCount ETV
vector 250 Tictoc1.peer[250] HopCount ETV
vector 251 Tictoc1.peer[251] HopCount ETV
vector 252 Tictoc1.peer[252] HopCount ETV
vector 253 Tictoc1.peer[253] HopCount ETV
vector 254 Tictoc1.peer[254] HopCount ETV
vector 255 Tictoc1.peer[255] HopCount ETV
vector 256 Tictoc1.peer[256] HopCount ETV
vector 257 Tictoc1.peer[257] HopCount ETV
vector 258 Tictoc1.peer[258] HopCount ETV
vector 259 Tictoc1.peer[259] HopCount ETV
vector 260 Tictoc1.peer[260] HopCount ETV
vector 261 Tictoc1.peer[261] HopCount ETV
vector 262 Tictoc1.peer[262] HopCount ETV
vector 263 Tictoc1.peer[263] HopCount ETV
vector 264 Tictoc1.peer[264] HopCount ETV
vector 265 Tictoc1.peer[265] HopCount ETV
vector 266 Tictoc1.peer[266] HopCount ETV
vector 267 Tictoc1.peer[267] HopCount ETV
vector 268 Tictoc1.peer[268] HopCount ETV
vector 269 Tictoc1.peer[269] HopCount ETV
vector 270 Tictoc1.peer[270] HopCount ETV
vector 271 Tictoc1.peer[271] HopCount ETV
vector 272 Tictoc1.peer[272] HopCount ETV
vector 273 Tictoc1.peer[273] HopCount ETV
vector 274 Tictoc1.peer[274] HopCount ETV
vector 275 Tictoc1.peer[275] HopCount ETV
vector 276 Tictoc1.peer[276] HopCount ETV
vector 277 Tictoc1.peer[277] HopCount ETV
vector 278 Tictoc1.peer[278] HopCount ETV
vector 279 Tictoc1.peer[279] HopCount ETV
vector 280 Tictoc1.peer[280] HopCount ETV
vector 281 Tictoc1.peer[281] HopCount ETV
vector 282 Tictoc1.peer[282] HopCount ETV
vector 283 Tictoc1.peer[283] HopCount ETV
vector 284 Tictoc1.peer[284] HopCount ETV
vector 285 Tictoc1.peer[285] HopCount ETV
vector 286 Tictoc1.peer[286] HopCount ETV
vector 287 Tictoc1.peer[287] HopCount ETV
vector 288 Tictoc1.peer[288] HopCount ETV
vector 289 Tictoc1.peer[289] HopCount ETV
vector 290 Tictoc1.peer[290] HopCount ETV
vector 291 Tictoc1.peer[291] HopCount ETV
vector 292 Tictoc1.peer[292] HopCount ETV
vector 293 Tictoc1.peer[293] HopCount ETV
vector 294 Tictoc1.peer[294] HopCount ETV
vector 295 Tictoc1.peer[295] HopCount ETV
vector 296 Tictoc1.peer[296] HopCount ETV
vector 297 Tictoc1.peer[297] HopCount ETV
vector 298 Tictoc1.peer[298] HopCount ETV
vector 299 Tictoc1.peer[299] HopCount ETV
vector 300 Tictoc1.peer[300] HopCount ETV
vector 301 Tictoc1.peer[301] HopCount ETV
vector 302 Tictoc1.peer[302] HopCount ETV
vector 303 Tictoc1.peer[303] HopCount ETV
vector 304 Tictoc1.peer[304] HopCount ETV
vector 305 Tictoc1.peer[305] HopCount ETV
vector 306 Tictoc1.peer[306] HopCount ETV
vector 307 Tictoc1.peer[307] HopCount ETV
vector 308 Tictoc1.peer[308] HopCount ETV
vector 309 Tictoc1.peer[309] HopCount ETV
vector 310 Tictoc1.peer[310] HopCount ETV
vector 311 Tictoc1.peer[311] HopCount ETV
vector 312 Tictoc1.peer[312] HopCount ETV
vector 313 Tictoc1.peer[313] HopCount ETV
vector 314 Tictoc1.peer[314] HopCount ETV
vector 315 Tictoc1.peer[315] HopCount ETV
vector 316 Tictoc1.peer[316] HopCount ETV
vector 317 Tictoc1.peer[317] HopCount ETV
vector 318 Tictoc1.peer[318] HopCount ETV
vector 319 Tictoc1.peer[319] HopCount ETV
vector 320 Tictoc1.peer[320] HopCount ETV
vector 321 Tictoc1.peer[321] HopCount ETV
vector 322 Tictoc1.peer[322] HopCount ETV
vector 323 Tictoc1.peer[323] HopCount ETV
vector 324 Tictoc1.peer[324] HopCount ETV
vector 325 Tictoc1.peer[325] HopCount ETV
vector 326 Tictoc1.peer[326] HopCount ETV
vector 327 Tictoc1.peer[327] HopCount ETV
vector 328 Tictoc1.peer[328] HopCount ETV
vector 329 Tictoc1.peer[329] HopCount ETV
vector 330 Tictoc1.peer[330] HopCount ETV
vector 331 Tictoc1.peer[331] HopCount ETV
vector 332 Tictoc1.peer[332] HopCount ETV
vector 333 Tictoc1.peer[333] HopCount ETV
vector 334 Tictoc1.peer[334] HopCount ETV
vector 335 Tictoc1.peer[335] HopCount ETV
vector 336 Tictoc1.peer[336] HopCount ETV
vector 337 Tictoc1.peer[337] HopCount ETV
vector 338 Tictoc1.peer[338] HopCount ETV
vector 339 Tictoc1.peer[339] HopCount ETV
vector 340 Tictoc1.peer[340] HopCount ETV
vector 341 Tictoc1.peer[341] HopCount ETV
vector 342 Tictoc1.peer[342] HopCount ETV
vector 343 Tictoc1.peer[343] HopCount ETV
vector 344 Tictoc1.peer[344] HopCount ETV
vector 345 Tictoc1.peer[345] HopCount ETV
vector 346 Tictoc1.peer[346] HopCount ETV
vector 347 Tictoc1.peer[347] HopCount ETV
vector 348 Tictoc1.peer[348] HopCount ETV
vector 349 Tictoc1.peer[349] HopCount ETV
vector 350 Tictoc1.peer[350] HopCount ETV
vector 351 Tictoc1.peer[351] HopCount ETV
vector 352 Tictoc1.peer[352] HopCount ETV
vector 353 Tictoc1.peer[353] HopCount ETV
vector 354 Tictoc1.peer[354] HopCount ETV
vector 355 Tictoc1.peer[355] HopCount ETV
vector 356 Tictoc1.peer[356] HopCount ETV
vector 357 Tictoc1.peer[357] HopCount ETV
vector 358 Tictoc1.peer[358] HopCount ETV
vector 359 Tictoc1.peer[359] HopCount ETV
vector 360 Tictoc1.peer[360] HopCount ETV
vector 361 Tictoc1.peer[361] HopCount ETV
vector 362 Tictoc1.peer[362] HopCount ETV
vector 363 Tictoc1.peer[363] HopCount ETV
vector 364 Tictoc1.peer[364] HopCount ETV
vector 365 Tictoc1.peer[365] HopCount ETV
vector 366 Tictoc1.peer[366] HopCount ETV
vector 367 Tictoc1.peer[367] HopCount ETV
vector 368 Tictoc1.peer[368] HopCount ETV
vector 369 Tictoc1.peer[369] HopCount ETV
vector 370 Tictoc1.peer[370] HopCount ETV
vector 371 Tictoc1.peer[371] HopCount ETV
vector 372 Tictoc1.peer[372] HopCount ETV
vector 373 Tictoc1.peer[373] HopCount ETV
vector 374 Tictoc1.peer[374] HopCount ETV
vector 375 Tictoc1.peer[375] HopCount ETV
vector 376 Tictoc1.peer[376] HopCount ETV
vector 377 Tictoc1.peer[377] HopCount ETV
vector 378 Tictoc1.peer[378] HopCount ETV
vector 379 Tictoc1.peer[379] HopCount ETV
vector 380 Tictoc1.peer[380] HopCount ETV
vector 381 Tictoc1.peer[381] HopCount ETV
vector 382 Tictoc1.peer[382] HopCount ETV
vector 383 Tictoc1.peer[383] HopCount ETV
vector 384 Tictoc1.peer[384] HopCount ETV
vector 385 Tictoc1.peer[385] HopCount ETV
vector 386 Tictoc1.peer[386] HopCount ETV
vector 387 Tictoc1.peer[387] HopCount ETV
vector 388 Tictoc1.peer[388] HopCount ETV
vector 389 Tictoc1.peer[389] HopCount ETV
vector 390 Tictoc1.peer[390] HopCount ETV
vector 391 Tictoc1.peer[391] HopCount ETV
vector 392 Tictoc1.peer[392] HopCount ETV
vector 393 Tictoc1.peer[393] HopCount ETV
vector 394 Tictoc1.peer[394] HopCount ETV
vector 395 Tictoc1.peer[395] HopCount ETV
vector 396 Tictoc1.peer[396] HopCount ETV
vector 397 Tictoc1.peer[397] HopCount ETV
vector 398 Tictoc1.peer[398] HopCount ETV
vector 399 Tictoc1.peer[399] HopCount ETV
vector 400 Tictoc1.peer[400] HopCount ETV
vector 401 Tictoc1.peer[401] HopCount ETV
vector 402 Tictoc1.peer[402] HopCount ETV
vector 403 Tictoc1.peer[403] HopCount ETV
vector 404 Tictoc1.peer[404] HopCount ETV
vector 405 Tictoc1.peer[405] HopCount ETV
vector 406 Tictoc1.peer[406] HopCount ETV
vector 407 Tictoc1.peer[407] HopCount ETV
vector 408 Tictoc1.peer[408] HopCount ETV
vector 409 Tictoc1.peer[409] HopCount ETV
vector 410 Tictoc1.peer[410] HopCount ETV
vector 411 Tictoc1.peer[411] HopCount ETV
vector 412 Tictoc1.peer[412] HopCount ETV
vector 413 Tictoc1.peer[413] HopCount ETV
vector 414 Tictoc1.peer[414] HopCount ETV
vector 415 Tictoc1.peer[416] HopCount ETV
vector 416 Tictoc1.peer[417] HopCount ETV
vector 417 Tictoc1.peer[418] HopCount ETV
vector 418 Tictoc1.peer[419] HopCount ETV
vector 419 Tictoc1.peer[420] HopCount ETV
vector 420 Tictoc1.peer[421] HopCount ETV
vector 421 Tictoc1.peer[422] HopCount ETV
vector 422 Tictoc1.peer[423] HopCount ETV
vector 423 Tictoc1.peer[426] HopCount ETV
vector 424 Tictoc1.peer[427] HopCount ETV
vector 425 Tictoc1.peer[429] HopCount ETV
vector 426 Tictoc1.peer[430] HopCount ETV
vector 427 Tictoc1.peer[431] HopCount ETV
vector 428 Tictoc1.peer[432] HopCount ETV
vector 429 Tictoc1.peer[433] HopCount ETV
vector 430 Tictoc1.peer[435] HopCount ETV
vector 431 Tictoc1.peer[436] HopCount ETV
vector 432 Tictoc1.peer[437] HopCount ETV
vector 433 Tictoc1.peer[438] HopCount ETV
vector 434 Tictoc1.peer[439] HopCount ETV
vector 435 Tictoc1.peer[440] HopCount ETV
vector 436 Tictoc1.peer[441] HopCount ETV
vector 437 Tictoc1.peer[442] HopCount ETV
vector 438 Tictoc1.peer[444] HopCount ETV
vector 439 Tictoc1.peer[445] HopCount ETV
vector 440 Tictoc1.peer[446] HopCount ETV
vector 441 Tictoc1.peer[447] HopCount ETV
vector 442 Tictoc1.peer[449] HopCount ETV
vector 443 Tictoc1.peer[450] HopCount ETV
vector 444 Tictoc1.peer[451] HopCount ETV
vector 445 Tictoc1.peer[452] HopCount ETV
vector 446 Tictoc1.peer[453] HopCount ETV
vector 447 Tictoc1.peer[454] HopCount ETV
vector 448 Tictoc1.peer[457] HopCount ETV
vector 449 Tictoc1.peer[459] HopCount ETV
vector 450 Tictoc1.peer[460] HopCount ETV
vector 451 Tictoc1.peer[461] HopCount ETV
vector 452 Tictoc1.peer[462] HopCount ETV
vector 453 Tictoc1.peer[463] HopCount ETV
vector 454 Tictoc1.peer[464] HopCount ETV
vector 455 Tictoc1.peer[465] HopCount ETV
vector 456 Tictoc1.peer[466] HopCount ETV
vector 457 Tictoc1.peer[467] HopCount ETV
vector 458 Tictoc1.peer[468] HopCount ETV
vector 459 Tictoc1.peer[469] HopCount ETV
vector 460 Tictoc1.peer[470] HopCount ETV
vector 461 Tictoc1.peer[471] HopCount ETV
vector 462 Tictoc1.peer[472] HopCount ETV
vector 463 Tictoc1.peer[473] HopCount ETV
vector 464 Tictoc1.peer[475] HopCount ETV
vector 465 Tictoc1.peer[476] HopCount ETV
vector 466 Tictoc1.peer[477] HopCount ETV
vector 467 Tictoc1.peer[479] HopCount ETV
vector 468 Tictoc1.peer[480] HopCount ETV
vector 469 Tictoc1.peer[482] HopCount ETV
vector 470 Tictoc1.peer[483] HopCount ETV
vector 471 Tictoc1.peer[484] HopCount ETV
vector 472 Tictoc1.peer[485] HopCount ETV
vector 473 Tictoc1.peer[486] HopCount ETV
vector 474 Tictoc1.peer[487] HopCount ETV
vector 475 Tictoc1.peer[488] HopCount ETV
vector 476 Tictoc1.peer[489] HopCount ETV
vector 477 Tictoc1.peer[490] HopCount ETV
vector 478 Tictoc1.peer[491] HopCount ETV
vector 479 Tictoc1.peer[495] HopCount ETV
vector 480 Tictoc1.peer[496] HopCount ETV
vector 481 Tictoc1.peer[497] HopCount ETV
vector 482 Tictoc1.peer[498] HopCount ETV
vector 483 Tictoc1.peer[499] HopCount ETV
vector 484 Tictoc1.peer[415] HopCount ETV
vector 485 Tictoc1.peer[424] HopCount ETV
vector 486 Tictoc1.peer[425] HopCount ETV
vector 487 Tictoc1.peer[428] HopCount ETV
vector 488 Tictoc1.peer[434] HopCount ETV
vector 489 Tictoc1.peer[443] HopCount ETV
vector 490 Tictoc1.peer[448] HopCount ETV
vector 491 Tictoc1.peer[455] HopCount ETV
vector 492 Tictoc1.peer[456] HopCount ETV
vector 493 Tictoc1.peer[458] HopCount ETV
vector 494 Tictoc1.peer[474] HopCount ETV
vector 495 Tictoc1.peer[478] HopCount ETV
vector 496 Tictoc1.peer[481] HopCount ETV
vector 497 Tictoc1.peer[492] HopCount ETV
vector 498 Tictoc1.peer[493] HopCount ETV
vector 499 Tictoc1.peer[494] HopCount ETV
0	7501	1.5	1
0	9969	2	2
0	12453	2.5	3
0	14937	3	4
0	17405	3.5	5
0	19889	4	6
0	22373	4.5	7
0	24841	5	8
0	27327	5.5	9
0	29805	6	10
0	32269	6.5	11
0	34745	7	12
0	37228	7.5	13
0	39680	8	14
0	42153	8.5	15
0	44613	9	16
0	47064	9.5	17
0	49505	10	18
0	51955	10.5	19
0	54371	11	20
0	56812	11.5	21
0	59224	12	22
0	61628	12.5	23
0	64018	13	24
0	66419	13.5	25
0	68778	14	26
0	71155	14.5	27
0	73514	15	28
0	75866	15.5	29
0	78663	16.1	30
0	81448	16.7	31
0	84231	17.3	32
0	86986	17.9	33
0	89802	18.5	34
0	92556	19.1	35
0	95294	19.7	36
0	98021	20.3	37
0	100713	20.9	38
1	7502	1.5	1
1	9970	2	2
1	12454	2.5	3
1	14938	3	4
1	17406	3.5	5
1	19890	4	6
1	22374	4.5	7
1	24842	5	8
1	27328	5.5	9
1	29806	6	10
1	32270	6.5	11
1	34746	7	12
1	37229	7.5	13
1	39681	8	14
1	42154	8.5	15
1	44614	9	16
1	47065	9.5	17
1	49506	10	18
1	51956	10.5	19
1	54372	11	20
1	56813	11.5	21
1	59225	12	22
1	61629	12.5	23
1	64019	13	24
1	66420	13.5	25
1	68779	14	26
1	71156	14.5	27
1	73515	15	28
1	75867	15.5	29
1	78206	16	30
1	80551	16.5	31
1	82864	17	32
1	85193	17.5	33
1	87507	18	34
1	89805	18.5	35
1	92107	19	36
1	94425	19.5	37
1	96690	20	38
1	98971	20.5	39
1	101236	21	40
1	103498	21.5	41
1	105734	22	42
1	107975	22.5	43
1	110173	23	44
1	112393	23.5	45
1	114999	24.1	46
1	117591	24.7	47
1	120179	25.3	48
1	122727	25.9	49
1	125377	26.5	50
1	127890	27.1	51
1	130399	27.7	52
1	132909	28.3	53
1	135383	28.9	54
1	146605	31.6	55
1	149014	32.2	56
1	151410	32.8	57
1	153794	33.4	58
1	156284	34	59
1	158642	34.6	60
1	160993	35.2	61
1	163328	35.8	62
1	165665	36.4	63
1	168110	37	64
1	170422	37.6	65
1	172700	38.2	66
1	174962	38.8	67
1	177229	39.4	68
1	179626	40	69
1	181878	40.6	70
1	184122	41.2	71
1	186355	41.8	72
1	188596	42.4	73
1	190963	43	74
1	193179	43.6	75
1	195385	44.2	76
1	197583	44.8	77
1	199774	45.4	78
1	202105	46	79
1	204284	46.6	80
1	206439	47.2	81
1	208580	47.8	82
1	210720	48.4	83
1	213004	49	84
1	215119	49.6	85
1	217218	50.2	86
1	223729	52.9	87
1	224732	53.5	88
1	225522	54.1	89
1	226236	54.7	90
1	226895	55.3	91
1	227477	55.9	92
1	228108	56.5	93
1	228588	57.1	94
1	229011	57.7	95
1	229388	58.3	96
1	229710	58.9	97
1	230022	59.5	98
1	230264	60.1	99
1	230474	60.7	100
2	7503	1.5	1
2	9971	2	2
2	12455	2.5	3
2	14939	3	4
2	17407	3.5	5
2	19891	4	6
2	22375	4.5	7
2	24843	5	8
2	27329	5.5	9
2	29807	6	10
2	32271	6.5	11
2	34747	7	12
2	37230	7.5	13
2	39682	8	14
2	42155	8.5	15
2	44615	9	16
2	47066	9.5	17
2	49507	10	18
2	51957	10.5	19
2	54373	11	20
2	56814	11.5	21
2	59226	12	22
2	61630	12.5	23
2	64020	13	24
2	66421	13.5	25
2	68780	14	26
2	71157	14.5	27
2	73516	15	28
2	75868	15.5	29
2	78207	16	30
2	80552	16.5	31
2	82865	17	32
2	85194	17.5	33
2	87508	18	34
2	89806	18.5	35
2	92108	19	36
2	94426	19.5	37
2	96691	20	38
2	98972	20.5	39
2	101237	21	40
2	103499	21.5	41
2	106161	22.1	42
2	108808	22.7	43
2	111454	23.3	44
2	114058	23.9	45
2	116754	24.5	46
2	119333	25.1	47
2	121899	25.7	48
2	124461	26.3	49
2	126974	26.9	50
2	129592	27.5	51
2	132095	28.1	52
2	134586	28.7	53
2	137071	29.3	54
2	139528	29.9	55
2	142107	30.5	56
2	144542	31.1	57
2	146965	31.7	58
2	149376	32.3	59
2	151762	32.9	60
2	154270	33.5	61
2	156632	34.1	62
2	158984	34.7	63
2	161345	35.3	64
2	163670	35.9	65
2	166138	36.5	66
2	168450	37.1	67
2	170750	37.7	68
2	173031	38.3	69
2	175289	38.9	70
2	177699	39.5	71
2	179947	40.1	72
2	182196	40.7	73
2	184441	41.3	74
2	186672	41.9	75
2	189063	42.5	76
2	191279	43.1	77
2	193489	43.7	78
2	195701	44.3	79
2	197891	44.9	80
2	200238	45.5	81
2	202415	46.1	82
2	204584	46.7	83
2	206743	47.3	84
2	208876	47.9	85
2	211181	48.5	86
2	213300	49.1	87
2	215404	49.7	88
2	217505	50.3	89
2	219584	50.9	90
2	221650	51.5	91
2	222584	52.1	92
2	223461	52.7	93
2	224319	53.3	94
2	225127	53.9	95
2	226004	54.5	96
2	226694	55.1	97
2	227298	55.7	98
2	227855	56.3	99
2	228351	56.9	100
3	7504	1.5	1
3	9972	2	2
3	12456	2.5	3
3	14940	3	4
3	17408	3.5	5
3	19892	4	6
3	22376	4.5	7
3	24844	5	8
3	27330	5.5	9
3	29808	6	10
3	32272	6.5	11
3	34748	7	12
3	37231	7.5	13
3	39683	8	14
3	42156	8.5	15
3	44616	9	16
3	47067	9.5	17
4	7505	1.5	1
4	9973	2	2
4	12457	2.5	3
4	14941	3	4
4	17409	3.5	5
4	19893	4	6
4	22377	4.5	7
4	24845	5	8
4	27331	5.5	9
4	29809	6	10
4	32273	6.5	11
4	34749	7	12
4	37232	7.5	13
4	39684	8	14
4	42157	8.5	15
4	44617	9	16
4	47068	9.5	17
4	49509	10	18
4	51958	10.5	19
4	54374	11	20
4	56815	11.5	21
4	59227	12	22
4	61631	12.5	23
4	64021	13	24
4	66422	13.5	25
4	68781	14	26
4	71158	14.5	27
4	73517	15	28
4	75869	15.5	29
4	78208	16	30
4	80553	16.5	31
4	82866	17	32
4	85195	17.5	33
4	87509	18	34
4	89807	18.5	35
4	92109	19	36
4	94427	19.5	37
4	96692	20	38
4	98973	20.5	39
4	101238	21	40
4	103500	21.5	41
4	106162	22.1	42
4	108809	22.7	43
4	111455	23.3	44
4	114059	23.9	45
4	116755	24.5	46
4	119334	25.1	47
4	121900	25.7	48
4	124462	26.3	49
4	126975	26.9	50
4	129593	27.5	51
4	132096	28.1	52
4	134587	28.7	53
5	7506	1.5	1
5	9974	2	2
5	12458	2.5	3
5	14942	3	4
5	17410	3.5	5
5	19894	4	6
5	22378	4.5	7
5	24846	5	8
5	27332	5.5	9
5	29810	6	10
5	32274	6.5	11
5	34750	7	12
5	37233	7.5	13
5	39685	8	14
5	42158	8.5	15
5	44618	9	16
5	47069	9.5	17
5	49510	10	18
5	51959	10.5	19
5	54873	11.1	20
5	57770	11.7	21
5	60662	12.3	22
5	63515	12.9	23
5	66417	13.5	24
5	69255	14.1	25
5	72080	14.7	26
5	74904	15.3	27
5	77698	15.9	28
5	80545	16.5	29
5	83323	17.1	30
5	95746	19.8	31
5	98472	20.4	32
5	101235	21	33
5	103940	21.6	34
5	106607	22.2	35
5	109245	22.8	36
5	111891	23.4	37
5	114578	24	38
5	117184	24.6	39
5	119766	25.2	40
5	122325	25.8	41
5	124885	26.4	42
5	127496	27	43
5	130012	27.6	44
5	132514	28.2	45
5	135000	28.8	46
5	137483	29.4	47
5	140051	30	48
5	142517	30.6	49
5	144953	31.2	50
5	147368	31.8	51
5	149782	32.4	52
5	152291	33	53
5	154669	33.6	54
5	157034	34.2	55
5	159381	34.8	56
5	161742	35.4	57
5	164200	36	58
5	166529	36.6	59
5	168844	37.2	60
5	171136	37.8	61
5	173417	38.4	62
5	175822	39	63
5	178085	39.6	64
5	180332	40.2	65
5	182580	40.8	66
5	184823	41.4	67
5	187207	42	68
5	189443	42.6	69
5	191660	43.2	70
5	193866	43.8	71
5	196080	44.4	72
5	198423	45	73
5	200611	45.6	74
5	202789	46.2	75
5	204951	46.8	76
5	207111	47.4	77
5	209412	48	78
5	211546	48.6	79
5	213665	49.2	80
5	215762	49.8	81
5	217865	50.4	82
5	220116	51	83
5	221823	51.6	84
5	222747	52.2	85
5	223616	52.8	86
5	224473	53.4	87
5	225410	54	88
5	226141	54.6	89
5	226807	55.2	90
5	227396	55.8	91
5	227943	56.4	92
5	228510	57	93
5	228951	57.6	94
5	229332	58.2	95
5	229666	58.8	96
5	229950	59.4	97
5	230226	60	98
5	230448	60.6	99
5	230633	61.2	100
6	7507	1.5	1
6	9975	2	2
6	12459	2.5	3
6	14943	3	4
6	17411	3.5	5
6	19895	4	6
6	22379	4.5	7
6	24847	5	8
6	27333	5.5	9
6	29811	6	10
6	32275	6.5	11
6	34751	7	12
6	37234	7.5	13
6	39686	8	14
6	42159	8.5	15
6	44619	9	16
6	47070	9.5	17
6	49511	10	18
6	51960	10.5	19
6	54375	11	20
6	56816	11.5	21
6	59228	12	22
6	61632	12.5	23
6	64022	13	24
6	66423	13.5	25
6	68782	14	26
6	71159	14.5	27
6	73518	15	28
6	75870	15.5	29
6	78209	16	30
6	80554	16.5	31
7	7508	1.5	1
7	9976	2	2
7	12460	2.5	3
7	14944	3	4
7	17412	3.5	5
7	19896	4	6
7	22380	4.5	7
7	24848	5	8
7	27334	5.5	9
7	29812	6	10
7	32276	6.5	11
7	34752	7	12
7	37235	7.5	13
7	39687	8	14
7	42160	8.5	15
7	44620	9	16
7	47071	9.5	17
7	49512	10	18
7	51961	10.5	19
7	54376	11	20
7	56817	11.5	21
7	59703	12.1	22
7	62572	12.7	23
7	65439	13.3	24
7	68271	13.9	25
7	71152	14.5	26
7	73971	15.1	27
7	76778	15.7	28
7	79578	16.3	29
7	82352	16.9	30
7	85186	17.5	31
7	87944	18.1	32
7	90695	18.7	33
7	93458	19.3	34
7	96174	19.9	35
7	98962	20.5	36
7	101661	21.1	37
7	104350	21.7	38
7	107022	22.3	39
7	109653	22.9	40
7	112379	23.5	41
7	114985	24.1	42
7	117577	24.7	43
7	120165	25.3	44
7	122713	25.9	45
7	125363	26.5	46
7	127876	27.1	47
7	130385	27.7	48
7	132895	28.3	49
7	135369	28.9	50
7	137958	29.5	51
7	140421	30.1	52
7	142876	30.7	53
7	145316	31.3	54
7	147722	31.9	55
7	150255	32.5	56
7	152637	33.1	57
7	155007	33.7	58
7	157373	34.3	59
7	159716	34.9	60
7	162207	35.5	61
7	164535	36.1	62
7	166856	36.7	63
7	169179	37.3	64
7	171456	37.9	65
7	173878	38.5	66
7	176138	39.1	67
7	178395	39.7	68
7	180645	40.3	69
7	182890	40.9	70
7	185282	41.5	71
7	187520	42.1	72
7	189747	42.7	73
7	191965	43.3	74
7	194169	43.9	75
7	196536	44.5	76
7	198727	45.1	77
7	200905	45.7	78
7	203087	46.3	79
7	205242	46.9	80
7	207562	47.5	81
7	209700	48.1	82
7	211823	48.7	83
7	213946	49.3	84
7	216037	49.9	85
7	218308	50.5	86
7	220391	51.1	87
7	221904	51.7	88
7	222821	52.3	89
7	223688	52.9	90
7	224692	53.5	91
7	225484	54.1	92
7	226203	54.7	93
7	226867	55.3	94
7	227450	55.9	95
7	228084	56.5	96
7	228566	57.1	97
7	228992	57.7	98
7	229373	58.3	99
7	229700	58.9	100
8	7509	1.5	1
8	9977	2	2
8	12461	2.5	3
8	14945	3	4
8	17413	3.5	5
8	19897	4	6
8	22381	4.5	7
8	24849	5	8
8	27335	5.5	9
8	29813	6	10
8	32277	6.5	11
8	34753	7	12
8	37236	7.5	13
8	39688	8	14
8	42161	8.5	15
8	44621	9	16
8	47072	9.5	17
8	49513	10	18
8	51962	10.5	19
8	54377	11	20
8	56818	11.5	21
8	59229	12	22
8	61633	12.5	23
8	64023	13	24
8	66424	13.5	25
8	68783	14	26
8	71160	14.5	27