file 70793 1705869778                                           
version 3
run Tictoc1-0-20240121-17:42:54-14782
attr configname Tictoc1
attr datetime 20240121-17:42:54
attr datetimef 20240121-174254
attr experiment Tictoc1
attr inifile omnetpp.ini
attr iterationvars ""
attr iterationvarsd ""
attr iterationvarsf ""
attr measurement ""
attr network Tictoc1
attr processid 14782
attr repetition 0
attr replication #0
attr resultdir results
attr runnumber 0
attr seedset 0
config network Tictoc1

vector 0 Tictoc1.peer[0] HopCount ETV
vector 1 Tictoc1.peer[1] HopCount ETV
vector 2 Tictoc1.peer[2] HopCount ETV
vector 3 Tictoc1.peer[3] HopCount ETV
vector 4 Tictoc1.peer[4] HopCount ETV
vector 5 Tictoc1.peer[5] HopCount ETV
vector 6 Tictoc1.peer[6] HopCount ETV
vector 7 Tictoc1.peer[7] HopCount ETV
vector 8 Tictoc1.peer[8] HopCount ETV
vector 9 Tictoc1.peer[9] HopCount ETV
vector 10 Tictoc1.peer[10] HopCount ETV
vector 11 Tictoc1.peer[11] HopCount ETV
vector 12 Tictoc1.peer[12] HopCount ETV
vector 13 Tictoc1.peer[13] HopCount ETV
vector 14 Tictoc1.peer[14] HopCount ETV
vector 15 Tictoc1.peer[15] HopCount ETV
vector 16 Tictoc1.peer[16] HopCount ETV
vector 17 Tictoc1.peer[17] HopCount ETV
vector 18 Tictoc1.peer[18] HopCount ETV
vector 19 Tictoc1.peer[19] HopCount ETV
vector 20 Tictoc1.peer[20] HopCount ETV
vector 21 Tictoc1.peer[21] HopCount ETV
vector 22 Tictoc1.peer[23] HopCount ETV
vector 23 Tictoc1.peer[25] HopCount ETV
vector 24 Tictoc1.peer[26] HopCount ETV
vector 25 Tictoc1.peer[28] HopCount ETV
vector 26 Tictoc1.peer[29] HopCount ETV
vector 27 Tictoc1.peer[30] HopCount ETV
vector 28 Tictoc1.peer[31] HopCount ETV
vector 29 Tictoc1.peer[32] HopCount ETV
vector 30 Tictoc1.peer[38] HopCount ETV
vector 31 Tictoc1.peer[39] HopCount ETV
vector 32 Tictoc1.peer[41] HopCount ETV
vector 33 Tictoc1.peer[42] HopCount ETV
vector 34 Tictoc1.peer[43] HopCount ETV
vector 35 Tictoc1.peer[44] HopCount ETV
vector 36 Tictoc1.peer[45] HopCount ETV
vector 37 Tictoc1.peer[46] HopCount ETV
vector 38 Tictoc1.peer[47] HopCount ETV
vector 39 Tictoc1.peer[48] HopCount ETV
vector 40 Tictoc1.peer[22] HopCount ETV
vector 41 Tictoc1.peer[24] HopCount ETV
vector 42 Tictoc1.peer[27] HopCount ETV
vector 43 Tictoc1.peer[33] HopCount ETV
vector 44 Tictoc1.peer[34] HopCount ETV
vector 45 Tictoc1.peer[35] HopCount ETV
vector 46 Tictoc1.peer[36] HopCount ETV
vector 47 Tictoc1.peer[37] HopCount ETV
vector 48 Tictoc1.peer[40] HopCount ETV
vector 49 Tictoc1.peer[49] HopCount ETV
0	2411 848 751 14437 1.5 31.5 61 1 61 1891 77531
1	3259 997 752 18183 1.5 40.5 66 1 66 2211 98021
2	4256 1542 753 23625 1.5 66.3 100 1 100 5050 338350
3	5798 1542 754 23363 1.5 60.9 100 1 100 5050 338350
4	7340 1542 755 23364 1.5 60.9 100 1 100 5050 338350
5	8882 1530 756 23547 1.5 64.2 100 1 100 5050 338350
6	10412 1433 757 21939 1.5 51 100 1 100 5050 338350
7	11845 1542 758 23365 1.5 60.9 100 1 100 5050 338350
8	13387 1530 759 23682 1.5 69.2 100 1 100 5050 338350
9	14917 1542 760 23639 1.5 66.7 100 1 100 5050 338350
10	16459 1111 761 18688 1.5 41.8 73 1 73 2701 132349
11	17570 111 762 2739 1.5 5.7 8 1 8 36 204
12	17681 1533 763 21940 1.5 51 100 1 100 5050 338350
13	19214 1606 764 23502 1.5 63.2 100 1 100 5050 338350
14	20820 1533 765 21941 1.5 51 100 1 100 5050 338350
15	22353 1533 766 21942 1.5 51 100 1 100 5050 338350
16	23886 1600 767 23252 1.5 59.8 100 1 100 5050 338350
17	25486 1642 768 23366 1.5 60.9 100 1 100 5050 338350
18	27128 1533 769 21943 1.5 51 100 1 100 5050 338350
19	28661 941 770 14875 1.5 32.5 63 1 63 2016 85344
20	29602 1533 771 21944 1.5 51 100 1 100 5050 338350
21	31135 1557 772 22399 1.5 53.1 100 1 100 5050 338350
22	32692 1565 773 22542 1.5 54.1 100 1 100 5050 338350
23	34257 1553 774 22346 1.5 52.9 100 1 100 5050 338350
24	35810 1549 775 22287 1.5 52.5 100 1 100 5050 338350
25	37359 1533 776 21945 1.5 51 100 1 100 5050 338350
26	38892 1229 777 18593 1.5 41.5 81 1 81 3321 180441
27	40121 1533 778 21946 1.5 51 100 1 100 5050 338350
28	41654 1631 779 22397 1.5 53.1 100 1 100 5050 338350
29	43285 1586 780 22398 1.5 53.1 100 1 100 5050 338350
30	44871 1570 781 22882 1.5 56.7 100 1 100 5050 338350
31	46441 1534 782 21947 1.5 51 100 1 100 5050 338350
32	47975 1534 783 21948 1.5 51 100 1 100 5050 338350
33	49509 499 784 8713 1.5 18.5 35 1 35 630 14910
34	50008 1534 785 21949 1.5 51 100 1 100 5050 338350
35	51542 1534 786 21950 1.5 51 100 1 100 5050 338350
36	53076 1534 787 21951 1.5 51 100 1 100 5050 338350
37	54610 1534 788 21952 1.5 51 100 1 100 5050 338350
38	56144 1102 789 16988 1.5 37.5 73 1 73 2701 132349
39	57246 1534 790 21953 1.5 51 100 1 100 5050 338350
40	58780 989 791 17486 1.6 38.8 63 1 63 2016 85344
41	59769 591 792 11312 1.6 24.4 39 1 39 780 20540
42	60360 1617 793 23688 1.6 69.7 100 1 100 5050 338350
43	61977 1603 794 23641 1.6 66.8 100 1 100 5050 338350
44	63580 1603 795 23380 1.6 61 100 1 100 5050 338350
45	65183 1603 796 23381 1.6 61 100 1 100 5050 338350
46	66786 352 797 7252 1.6 15.4 24 1 24 300 4900
47	67138 989 798 17491 1.6 38.8 63 1 63 2016 85344
48	68127 1344 799 22876 1.6 56.7 84 1 84 3570 201110
49	69471 1321 800 21858 1.6 50.8 83 1 83 3486 194054

