version 3
run Tictoc1-0-20240206-12:18:10-5816
attr configname Tictoc1
attr datetime 20240206-12:18:10
attr datetimef 20240206-121810
attr experiment Tictoc1
attr inifile omnetpp.ini
attr iterationvars ""
attr iterationvarsd ""
attr iterationvarsf ""
attr measurement ""
attr network Tictoc1
attr processid 5816
attr repetition 0
attr replication #0
attr resultdir results
attr runnumber 0
attr seedset 0
config network Tictoc1

vector 0 Tictoc1.peer[0] HopCount ETV
vector 1 Tictoc1.peer[1] HopCount ETV
vector 2 Tictoc1.peer[2] HopCount ETV
vector 3 Tictoc1.peer[3] HopCount ETV
vector 4 Tictoc1.peer[4] HopCount ETV
vector 5 Tictoc1.peer[5] HopCount ETV
vector 6 Tictoc1.peer[6] HopCount ETV
vector 7 Tictoc1.peer[7] HopCount ETV
vector 8 Tictoc1.peer[8] HopCount ETV
vector 9 Tictoc1.peer[9] HopCount ETV
vector 10 Tictoc1.peer[10] HopCount ETV
vector 11 Tictoc1.peer[11] HopCount ETV
vector 12 Tictoc1.peer[12] HopCount ETV
vector 13 Tictoc1.peer[13] HopCount ETV
vector 14 Tictoc1.peer[14] HopCount ETV
vector 15 Tictoc1.peer[15] HopCount ETV
vector 16 Tictoc1.peer[16] HopCount ETV
vector 17 Tictoc1.peer[17] HopCount ETV
vector 18 Tictoc1.peer[18] HopCount ETV
vector 19 Tictoc1.peer[19] HopCount ETV
vector 20 Tictoc1.peer[20] HopCount ETV
vector 21 Tictoc1.peer[21] HopCount ETV
vector 22 Tictoc1.peer[22] HopCount ETV
vector 23 Tictoc1.peer[23] HopCount ETV
vector 24 Tictoc1.peer[24] HopCount ETV
vector 25 Tictoc1.peer[25] HopCount ETV
vector 26 Tictoc1.peer[26] HopCount ETV
vector 27 Tictoc1.peer[27] HopCount ETV
vector 28 Tictoc1.peer[28] HopCount ETV
vector 29 Tictoc1.peer[29] HopCount ETV
vector 30 Tictoc1.peer[30] HopCount ETV
vector 31 Tictoc1.peer[31] HopCount ETV
vector 32 Tictoc1.peer[32] HopCount ETV
vector 33 Tictoc1.peer[33] HopCount ETV
vector 34 Tictoc1.peer[34] HopCount ETV
vector 35 Tictoc1.peer[35] HopCount ETV
vector 36 Tictoc1.peer[36] HopCount ETV
vector 37 Tictoc1.peer[37] HopCount ETV
vector 38 Tictoc1.peer[38] HopCount ETV
vector 39 Tictoc1.peer[39] HopCount ETV
vector 40 Tictoc1.peer[40] HopCount ETV
vector 41 Tictoc1.peer[41] HopCount ETV
vector 42 Tictoc1.peer[42] HopCount ETV
vector 43 Tictoc1.peer[43] HopCount ETV
vector 44 Tictoc1.peer[44] HopCount ETV
vector 45 Tictoc1.peer[45] HopCount ETV
vector 46 Tictoc1.peer[46] HopCount ETV
vector 47 Tictoc1.peer[47] HopCount ETV
vector 48 Tictoc1.peer[48] HopCount ETV
vector 49 Tictoc1.peer[49] HopCount ETV
vector 50 Tictoc1.peer[50] HopCount ETV
vector 51 Tictoc1.peer[51] HopCount ETV
vector 52 Tictoc1.peer[52] HopCount ETV
vector 53 Tictoc1.peer[53] HopCount ETV
vector 54 Tictoc1.peer[54] HopCount ETV
vector 55 Tictoc1.peer[55] HopCount ETV
vector 56 Tictoc1.peer[56] HopCount ETV
vector 57 Tictoc1.peer[57] HopCount ETV
vector 58 Tictoc1.peer[58] HopCount ETV
vector 59 Tictoc1.peer[59] HopCount ETV
vector 60 Tictoc1.peer[60] HopCount ETV
vector 61 Tictoc1.peer[61] HopCount ETV
vector 62 Tictoc1.peer[62] HopCount ETV
vector 63 Tictoc1.peer[63] HopCount ETV
vector 64 Tictoc1.peer[64] HopCount ETV
vector 65 Tictoc1.peer[65] HopCount ETV
vector 66 Tictoc1.peer[66] HopCount ETV
vector 67 Tictoc1.peer[67] HopCount ETV
vector 68 Tictoc1.peer[68] HopCount ETV
vector 69 Tictoc1.peer[69] HopCount ETV
vector 70 Tictoc1.peer[70] HopCount ETV
vector 71 Tictoc1.peer[71] HopCount ETV
vector 72 Tictoc1.peer[72] HopCount ETV
vector 73 Tictoc1.peer[73] HopCount ETV
vector 74 Tictoc1.peer[74] HopCount ETV
vector 75 Tictoc1.peer[75] HopCount ETV
vector 76 Tictoc1.peer[76] HopCount ETV
vector 77 Tictoc1.peer[77] HopCount ETV
vector 78 Tictoc1.peer[78] HopCount ETV
vector 79 Tictoc1.peer[79] HopCount ETV
vector 80 Tictoc1.peer[80] HopCount ETV
vector 81 Tictoc1.peer[81] HopCount ETV
vector 82 Tictoc1.peer[82] HopCount ETV
vector 83 Tictoc1.peer[83] HopCount ETV
vector 84 Tictoc1.peer[84] HopCount ETV
vector 85 Tictoc1.peer[85] HopCount ETV
vector 86 Tictoc1.peer[86] HopCount ETV
vector 87 Tictoc1.peer[87] HopCount ETV
vector 88 Tictoc1.peer[88] HopCount ETV
vector 89 Tictoc1.peer[89] HopCount ETV
vector 90 Tictoc1.peer[90] HopCount ETV
vector 91 Tictoc1.peer[91] HopCount ETV
vector 92 Tictoc1.peer[92] HopCount ETV
vector 93 Tictoc1.peer[93] HopCount ETV
vector 94 Tictoc1.peer[94] HopCount ETV
vector 95 Tictoc1.peer[95] HopCount ETV
vector 96 Tictoc1.peer[96] HopCount ETV
vector 97 Tictoc1.peer[97] HopCount ETV
vector 98 Tictoc1.peer[98] HopCount ETV
vector 99 Tictoc1.peer[99] HopCount ETV
vector 100 Tictoc1.peer[100] HopCount ETV
vector 101 Tictoc1.peer[101] HopCount ETV
vector 102 Tictoc1.peer[102] HopCount ETV
vector 103 Tictoc1.peer[103] HopCount ETV
vector 104 Tictoc1.peer[104] HopCount ETV
vector 105 Tictoc1.peer[105] HopCount ETV
vector 106 Tictoc1.peer[106] HopCount ETV
vector 107 Tictoc1.peer[107] HopCount ETV
vector 108 Tictoc1.peer[108] HopCount ETV
vector 109 Tictoc1.peer[109] HopCount ETV
vector 110 Tictoc1.peer[110] HopCount ETV
vector 111 Tictoc1.peer[111] HopCount ETV
vector 112 Tictoc1.peer[112] HopCount ETV
vector 113 Tictoc1.peer[113] HopCount ETV
vector 114 Tictoc1.peer[114] HopCount ETV
vector 115 Tictoc1.peer[115] HopCount ETV
vector 116 Tictoc1.peer[116] HopCount ETV
vector 117 Tictoc1.peer[117] HopCount ETV
vector 118 Tictoc1.peer[118] HopCount ETV
vector 119 Tictoc1.peer[119] HopCount ETV
vector 120 Tictoc1.peer[120] HopCount ETV
vector 121 Tictoc1.peer[121] HopCount ETV
vector 122 Tictoc1.peer[122] HopCount ETV
vector 123 Tictoc1.peer[123] HopCount ETV
vector 124 Tictoc1.peer[124] HopCount ETV
vector 125 Tictoc1.peer[125] HopCount ETV
vector 126 Tictoc1.peer[126] HopCount ETV
vector 127 Tictoc1.peer[127] HopCount ETV
vector 128 Tictoc1.peer[128] HopCount ETV
vector 129 Tictoc1.peer[129] HopCount ETV
vector 130 Tictoc1.peer[130] HopCount ETV
vector 131 Tictoc1.peer[131] HopCount ETV
vector 132 Tictoc1.peer[132] HopCount ETV
vector 133 Tictoc1.peer[133] HopCount ETV
vector 134 Tictoc1.peer[134] HopCount ETV
vector 135 Tictoc1.peer[135] HopCount ETV
vector 136 Tictoc1.peer[136] HopCount ETV
vector 137 Tictoc1.peer[137] HopCount ETV
vector 138 Tictoc1.peer[138] HopCount ETV
vector 139 Tictoc1.peer[139] HopCount ETV
vector 140 Tictoc1.peer[140] HopCount ETV
vector 141 Tictoc1.peer[141] HopCount ETV
vector 142 Tictoc1.peer[142] HopCount ETV
vector 143 Tictoc1.peer[143] HopCount ETV
vector 144 Tictoc1.peer[144] HopCount ETV
vector 145 Tictoc1.peer[145] HopCount ETV
vector 146 Tictoc1.peer[146] HopCount ETV
vector 147 Tictoc1.peer[147] HopCount ETV
vector 148 Tictoc1.peer[148] HopCount ETV
vector 149 Tictoc1.peer[149] HopCount ETV
vector 150 Tictoc1.peer[150] HopCount ETV
vector 151 Tictoc1.peer[151] HopCount ETV
vector 152 Tictoc1.peer[152] HopCount ETV
vector 153 Tictoc1.peer[153] HopCount ETV
vector 154 Tictoc1.peer[154] HopCount ETV
vector 155 Tictoc1.peer[155] HopCount ETV
vector 156 Tictoc1.peer[156] HopCount ETV
vector 157 Tictoc1.peer[157] HopCount ETV
vector 158 Tictoc1.peer[158] HopCount ETV
vector 159 Tictoc1.peer[159] HopCount ETV
vector 160 Tictoc1.peer[160] HopCount ETV
vector 161 Tictoc1.peer[161] HopCount ETV
vector 162 Tictoc1.peer[162] HopCount ETV
vector 163 Tictoc1.peer[163] HopCount ETV
vector 164 Tictoc1.peer[164] HopCount ETV
vector 165 Tictoc1.peer[165] HopCount ETV
vector 166 Tictoc1.peer[166] HopCount ETV
vector 167 Tictoc1.peer[167] HopCount ETV
vector 168 Tictoc1.peer[168] HopCount ETV
vector 169 Tictoc1.peer[169] HopCount ETV
vector 170 Tictoc1.peer[170] HopCount ETV
vector 171 Tictoc1.peer[171] HopCount ETV
vector 172 Tictoc1.peer[172] HopCount ETV
vector 173 Tictoc1.peer[173] HopCount ETV
vector 174 Tictoc1.peer[174] HopCount ETV
vector 175 Tictoc1.peer[175] HopCount ETV
vector 176 Tictoc1.peer[176] HopCount ETV
vector 177 Tictoc1.peer[177] HopCount ETV
vector 178 Tictoc1.peer[178] HopCount ETV
vector 179 Tictoc1.peer[179] HopCount ETV
vector 180 Tictoc1.peer[180] HopCount ETV
vector 181 Tictoc1.peer[181] HopCount ETV
vector 182 Tictoc1.peer[182] HopCount ETV
vector 183 Tictoc1.peer[183] HopCount ETV
vector 184 Tictoc1.peer[184] HopCount ETV
vector 185 Tictoc1.peer[185] HopCount ETV
vector 186 Tictoc1.peer[186] HopCount ETV
vector 187 Tictoc1.peer[187] HopCount ETV
vector 188 Tictoc1.peer[188] HopCount ETV
vector 189 Tictoc1.peer[189] HopCount ETV
vector 190 Tictoc1.peer[190] HopCount ETV
vector 191 Tictoc1.peer[191] HopCount ETV
vector 192 Tictoc1.peer[192] HopCount ETV
vector 193 Tictoc1.peer[193] HopCount ETV
vector 194 Tictoc1.peer[194] HopCount ETV
vector 195 Tictoc1.peer[195] HopCount ETV
vector 196 Tictoc1.peer[196] HopCount ETV
vector 197 Tictoc1.peer[197] HopCount ETV
vector 198 Tictoc1.peer[198] HopCount ETV
vector 199 Tictoc1.peer[199] HopCount ETV
vector 200 Tictoc1.peer[200] HopCount ETV
vector 201 Tictoc1.peer[201] HopCount ETV
vector 202 Tictoc1.peer[202] HopCount ETV
vector 203 Tictoc1.peer[203] HopCount ETV
vector 204 Tictoc1.peer[204] HopCount ETV
vector 205 Tictoc1.peer[205] HopCount ETV
vector 206 Tictoc1.peer[206] HopCount ETV
vector 207 Tictoc1.peer[207] HopCount ETV
vector 208 Tictoc1.peer[208] HopCount ETV
vector 209 Tictoc1.peer[209] HopCount ETV
vector 210 Tictoc1.peer[210] HopCount ETV
vector 211 Tictoc1.peer[211] HopCount ETV
vector 212 Tictoc1.peer[212] HopCount ETV
vector 213 Tictoc1.peer[213] HopCount ETV
vector 214 Tictoc1.peer[214] HopCount ETV
vector 215 Tictoc1.peer[215] HopCount ETV
vector 216 Tictoc1.peer[216] HopCount ETV
vector 217 Tictoc1.peer[217] HopCount ETV
vector 218 Tictoc1.peer[218] HopCount ETV
vector 219 Tictoc1.peer[219] HopCount ETV
vector 220 Tictoc1.peer[220] HopCount ETV
vector 221 Tictoc1.peer[221] HopCount ETV
vector 222 Tictoc1.peer[222] HopCount ETV
vector 223 Tictoc1.peer[223] HopCount ETV
vector 224 Tictoc1.peer[224] HopCount ETV
vector 225 Tictoc1.peer[225] HopCount ETV
vector 226 Tictoc1.peer[226] HopCount ETV
vector 227 Tictoc1.peer[227] HopCount ETV
vector 228 Tictoc1.peer[228] HopCount ETV
vector 229 Tictoc1.peer[229] HopCount ETV
vector 230 Tictoc1.peer[230] HopCount ETV
vector 231 Tictoc1.peer[231] HopCount ETV
vector 232 Tictoc1.peer[232] HopCount ETV
vector 233 Tictoc1.peer[233] HopCount ETV
vector 234 Tictoc1.peer[234] HopCount ETV
vector 235 Tictoc1.peer[235] HopCount ETV
vector 236 Tictoc1.peer[236] HopCount ETV
vector 237 Tictoc1.peer[237] HopCount ETV
vector 238 Tictoc1.peer[238] HopCount ETV
vector 239 Tictoc1.peer[239] HopCount ETV
vector 240 Tictoc1.peer[240] HopCount ETV
vector 241 Tictoc1.peer[241] HopCount ETV
vector 242 Tictoc1.peer[242] HopCount ETV
vector 243 Tictoc1.peer[243] HopCount ETV
vector 244 Tictoc1.peer[244] HopCount ETV
vector 245 Tictoc1.peer[245] HopCount ETV
vector 246 Tictoc1.peer[246] HopCount ETV
vector 247 Tictoc1.peer[247] HopCount ETV
vector 248 Tictoc1.peer[248] HopCount ETV
vector 249 Tictoc1.peer[249] HopCount ETV
vector 250 Tictoc1.peer[250] HopCount ETV
vector 251 Tictoc1.peer[251] HopCount ETV
vector 252 Tictoc1.peer[252] HopCount ETV
vector 253 Tictoc1.peer[253] HopCount ETV
vector 254 Tictoc1.peer[254] HopCount ETV
vector 255 Tictoc1.peer[255] HopCount ETV
vector 256 Tictoc1.peer[256] HopCount ETV
vector 257 Tictoc1.peer[257] HopCount ETV
vector 258 Tictoc1.peer[258] HopCount ETV
vector 259 Tictoc1.peer[259] HopCount ETV
vector 260 Tictoc1.peer[260] HopCount ETV
vector 261 Tictoc1.peer[261] HopCount ETV
vector 262 Tictoc1.peer[262] HopCount ETV
vector 263 Tictoc1.peer[263] HopCount ETV
vector 264 Tictoc1.peer[264] HopCount ETV
vector 265 Tictoc1.peer[265] HopCount ETV
vector 266 Tictoc1.peer[266] HopCount ETV
vector 267 Tictoc1.peer[267] HopCount ETV
vector 268 Tictoc1.peer[268] HopCount ETV
vector 269 Tictoc1.peer[269] HopCount ETV
vector 270 Tictoc1.peer[270] HopCount ETV
vector 271 Tictoc1.peer[271] HopCount ETV
vector 272 Tictoc1.peer[272] HopCount ETV
vector 273 Tictoc1.peer[273] HopCount ETV
vector 274 Tictoc1.peer[274] HopCount ETV
vector 275 Tictoc1.peer[275] HopCount ETV
vector 276 Tictoc1.peer[276] HopCount ETV
vector 277 Tictoc1.peer[277] HopCount ETV
vector 278 Tictoc1.peer[278] HopCount ETV
vector 279 Tictoc1.peer[279] HopCount ETV
vector 280 Tictoc1.peer[280] HopCount ETV
vector 281 Tictoc1.peer[281] HopCount ETV
vector 282 Tictoc1.peer[282] HopCount ETV
vector 283 Tictoc1.peer[283] HopCount ETV
vector 284 Tictoc1.peer[284] HopCount ETV
vector 285 Tictoc1.peer[285] HopCount ETV
vector 286 Tictoc1.peer[286] HopCount ETV
vector 287 Tictoc1.peer[287] HopCount ETV
vector 288 Tictoc1.peer[288] HopCount ETV
vector 289 Tictoc1.peer[289] HopCount ETV
vector 290 Tictoc1.peer[290] HopCount ETV
vector 291 Tictoc1.peer[291] HopCount ETV
vector 292 Tictoc1.peer[292] HopCount ETV
vector 293 Tictoc1.peer[293] HopCount ETV
vector 294 Tictoc1.peer[294] HopCount ETV
vector 295 Tictoc1.peer[295] HopCount ETV
vector 296 Tictoc1.peer[296] HopCount ETV
vector 297 Tictoc1.peer[297] HopCount ETV
vector 298 Tictoc1.peer[298] HopCount ETV
vector 299 Tictoc1.peer[299] HopCount ETV
vector 300 Tictoc1.peer[300] HopCount ETV
vector 301 Tictoc1.peer[301] HopCount ETV
vector 302 Tictoc1.peer[302] HopCount ETV
vector 303 Tictoc1.peer[303] HopCount ETV
vector 304 Tictoc1.peer[304] HopCount ETV
vector 305 Tictoc1.peer[305] HopCount ETV
vector 306 Tictoc1.peer[306] HopCount ETV
vector 307 Tictoc1.peer[307] HopCount ETV
vector 308 Tictoc1.peer[308] HopCount ETV
vector 309 Tictoc1.peer[309] HopCount ETV
vector 310 Tictoc1.peer[310] HopCount ETV
vector 311 Tictoc1.peer[311] HopCount ETV
vector 312 Tictoc1.peer[312] HopCount ETV
vector 313 Tictoc1.peer[313] HopCount ETV
vector 314 Tictoc1.peer[314] HopCount ETV
vector 315 Tictoc1.peer[315] HopCount ETV
vector 316 Tictoc1.peer[316] HopCount ETV
vector 317 Tictoc1.peer[317] HopCount ETV
vector 318 Tictoc1.peer[318] HopCount ETV
vector 319 Tictoc1.peer[319] HopCount ETV
vector 320 Tictoc1.peer[320] HopCount ETV
vector 321 Tictoc1.peer[321] HopCount ETV
vector 322 Tictoc1.peer[322] HopCount ETV
vector 323 Tictoc1.peer[323] HopCount ETV
vector 324 Tictoc1.peer[324] HopCount ETV
vector 325 Tictoc1.peer[325] HopCount ETV
vector 326 Tictoc1.peer[326] HopCount ETV
vector 327 Tictoc1.peer[327] HopCount ETV
vector 328 Tictoc1.peer[328] HopCount ETV
vector 329 Tictoc1.peer[329] HopCount ETV
vector 330 Tictoc1.peer[330] HopCount ETV
vector 331 Tictoc1.peer[331] HopCount ETV
vector 332 Tictoc1.peer[332] HopCount ETV
vector 333 Tictoc1.peer[333] HopCount ETV
vector 334 Tictoc1.peer[334] HopCount ETV
vector 335 Tictoc1.peer[335] HopCount ETV
vector 336 Tictoc1.peer[336] HopCount ETV
vector 337 Tictoc1.peer[337] HopCount ETV
vector 338 Tictoc1.peer[338] HopCount ETV
vector 339 Tictoc1.peer[339] HopCount ETV
vector 340 Tictoc1.peer[340] HopCount ETV
vector 341 Tictoc1.peer[341] HopCount ETV
vector 342 Tictoc1.peer[342] HopCount ETV
vector 343 Tictoc1.peer[343] HopCount ETV
vector 344 Tictoc1.peer[344] HopCount ETV
vector 345 Tictoc1.peer[345] HopCount ETV
vector 346 Tictoc1.peer[346] HopCount ETV
vector 347 Tictoc1.peer[347] HopCount ETV
vector 348 Tictoc1.peer[348] HopCount ETV
vector 349 Tictoc1.peer[349] HopCount ETV
vector 350 Tictoc1.peer[350] HopCount ETV
vector 351 Tictoc1.peer[351] HopCount ETV
vector 352 Tictoc1.peer[352] HopCount ETV
vector 353 Tictoc1.peer[353] HopCount ETV
vector 354 Tictoc1.peer[354] HopCount ETV
vector 355 Tictoc1.peer[355] HopCount ETV
vector 356 Tictoc1.peer[356] HopCount ETV
vector 357 Tictoc1.peer[357] HopCount ETV
vector 358 Tictoc1.peer[358] HopCount ETV
vector 359 Tictoc1.peer[359] HopCount ETV
vector 360 Tictoc1.peer[360] HopCount ETV
vector 361 Tictoc1.peer[361] HopCount ETV
vector 362 Tictoc1.peer[362] HopCount ETV
vector 363 Tictoc1.peer[363] HopCount ETV
vector 364 Tictoc1.peer[364] HopCount ETV
vector 365 Tictoc1.peer[365] HopCount ETV
vector 366 Tictoc1.peer[366] HopCount ETV
vector 367 Tictoc1.peer[367] HopCount ETV
vector 368 Tictoc1.peer[368] HopCount ETV
vector 369 Tictoc1.peer[369] HopCount ETV
vector 370 Tictoc1.peer[370] HopCount ETV
vector 371 Tictoc1.peer[371] HopCount ETV
vector 372 Tictoc1.peer[372] HopCount ETV
vector 373 Tictoc1.peer[373] HopCount ETV
vector 374 Tictoc1.peer[374] HopCount ETV
vector 375 Tictoc1.peer[375] HopCount ETV
vector 376 Tictoc1.peer[376] HopCount ETV
vector 377 Tictoc1.peer[377] HopCount ETV
vector 378 Tictoc1.peer[378] HopCount ETV
vector 379 Tictoc1.peer[379] HopCount ETV
vector 380 Tictoc1.peer[380] HopCount ETV
vector 381 Tictoc1.peer[381] HopCount ETV
vector 382 Tictoc1.peer[382] HopCount ETV
vector 383 Tictoc1.peer[383] HopCount ETV
vector 384 Tictoc1.peer[384] HopCount ETV
vector 385 Tictoc1.peer[385] HopCount ETV
vector 386 Tictoc1.peer[386] HopCount ETV
vector 387 Tictoc1.peer[387] HopCount ETV
vector 388 Tictoc1.peer[388] HopCount ETV
vector 389 Tictoc1.peer[389] HopCount ETV
vector 390 Tictoc1.peer[390] HopCount ETV
vector 391 Tictoc1.peer[391] HopCount ETV
vector 392 Tictoc1.peer[392] HopCount ETV
vector 393 Tictoc1.peer[393] HopCount ETV
vector 394 Tictoc1.peer[394] HopCount ETV
vector 395 Tictoc1.peer[395] HopCount ETV
vector 396 Tictoc1.peer[396] HopCount ETV
vector 397 Tictoc1.peer[397] HopCount ETV
vector 398 Tictoc1.peer[398] HopCount ETV
vector 399 Tictoc1.peer[399] HopCount ETV
vector 400 Tictoc1.peer[400] HopCount ETV
vector 401 Tictoc1.peer[401] HopCount ETV
vector 402 Tictoc1.peer[402] HopCount ETV
vector 403 Tictoc1.peer[403] HopCount ETV
vector 404 Tictoc1.peer[404] HopCount ETV
vector 405 Tictoc1.peer[405] HopCount ETV
vector 406 Tictoc1.peer[406] HopCount ETV
vector 407 Tictoc1.peer[407] HopCount ETV
vector 408 Tictoc1.peer[408] HopCount ETV
vector 409 Tictoc1.peer[409] HopCount ETV
vector 410 Tictoc1.peer[410] HopCount ETV
vector 411 Tictoc1.peer[411] HopCount ETV
vector 412 Tictoc1.peer[412] HopCount ETV
vector 413 Tictoc1.peer[413] HopCount ETV
vector 414 Tictoc1.peer[414] HopCount ETV
vector 415 Tictoc1.peer[415] HopCount ETV
vector 416 Tictoc1.peer[416] HopCount ETV
vector 417 Tictoc1.peer[417] HopCount ETV
vector 418 Tictoc1.peer[418] HopCount ETV
vector 419 Tictoc1.peer[419] HopCount ETV
vector 420 Tictoc1.peer[420] HopCount ETV
vector 421 Tictoc1.peer[421] HopCount ETV
vector 422 Tictoc1.peer[422] HopCount ETV
vector 423 Tictoc1.peer[423] HopCount ETV
vector 424 Tictoc1.peer[424] HopCount ETV
vector 425 Tictoc1.peer[425] HopCount ETV
vector 426 Tictoc1.peer[426] HopCount ETV
vector 427 Tictoc1.peer[427] HopCount ETV
vector 428 Tictoc1.peer[428] HopCount ETV
vector 429 Tictoc1.peer[429] HopCount ETV
vector 430 Tictoc1.peer[430] HopCount ETV
vector 431 Tictoc1.peer[431] HopCount ETV
vector 432 Tictoc1.peer[432] HopCount ETV
vector 433 Tictoc1.peer[433] HopCount ETV
vector 434 Tictoc1.peer[434] HopCount ETV
vector 435 Tictoc1.peer[435] HopCount ETV
vector 436 Tictoc1.peer[436] HopCount ETV
vector 437 Tictoc1.peer[437] HopCount ETV
vector 438 Tictoc1.peer[438] HopCount ETV
vector 439 Tictoc1.peer[439] HopCount ETV
vector 440 Tictoc1.peer[440] HopCount ETV
vector 441 Tictoc1.peer[441] HopCount ETV
vector 442 Tictoc1.peer[442] HopCount ETV
vector 443 Tictoc1.peer[443] HopCount ETV
vector 444 Tictoc1.peer[444] HopCount ETV
vector 445 Tictoc1.peer[445] HopCount ETV
vector 446 Tictoc1.peer[446] HopCount ETV
vector 447 Tictoc1.peer[447] HopCount ETV
vector 448 Tictoc1.peer[448] HopCount ETV
vector 449 Tictoc1.peer[449] HopCount ETV
vector 450 Tictoc1.peer[450] HopCount ETV
vector 451 Tictoc1.peer[451] HopCount ETV
vector 452 Tictoc1.peer[452] HopCount ETV
vector 453 Tictoc1.peer[453] HopCount ETV
vector 454 Tictoc1.peer[454] HopCount ETV
vector 455 Tictoc1.peer[455] HopCount ETV
vector 456 Tictoc1.peer[456] HopCount ETV
vector 457 Tictoc1.peer[457] HopCount ETV
vector 458 Tictoc1.peer[458] HopCount ETV
vector 459 Tictoc1.peer[459] HopCount ETV
vector 460 Tictoc1.peer[460] HopCount ETV
vector 461 Tictoc1.peer[461] HopCount ETV
vector 462 Tictoc1.peer[462] HopCount ETV
vector 463 Tictoc1.peer[463] HopCount ETV
vector 464 Tictoc1.peer[464] HopCount ETV
vector 465 Tictoc1.peer[465] HopCount ETV
vector 466 Tictoc1.peer[466] HopCount ETV
vector 467 Tictoc1.peer[467] HopCount ETV
vector 468 Tictoc1.peer[468] HopCount ETV
vector 469 Tictoc1.peer[469] HopCount ETV
vector 470 Tictoc1.peer[470] HopCount ETV
vector 471 Tictoc1.peer[471] HopCount ETV
vector 472 Tictoc1.peer[472] HopCount ETV
vector 473 Tictoc1.peer[473] HopCount ETV
vector 474 Tictoc1.peer[474] HopCount ETV
vector 475 Tictoc1.peer[475] HopCount ETV
vector 476 Tictoc1.peer[476] HopCount ETV
vector 477 Tictoc1.peer[477] HopCount ETV
vector 478 Tictoc1.peer[478] HopCount ETV
vector 479 Tictoc1.peer[479] HopCount ETV
vector 480 Tictoc1.peer[480] HopCount ETV
vector 481 Tictoc1.peer[481] HopCount ETV
vector 482 Tictoc1.peer[482] HopCount ETV
vector 483 Tictoc1.peer[483] HopCount ETV
vector 484 Tictoc1.peer[484] HopCount ETV
vector 485 Tictoc1.peer[485] HopCount ETV
vector 486 Tictoc1.peer[486] HopCount ETV
vector 487 Tictoc1.peer[487] HopCount ETV
vector 488 Tictoc1.peer[488] HopCount ETV
vector 489 Tictoc1.peer[489] HopCount ETV
vector 490 Tictoc1.peer[490] HopCount ETV
vector 491 Tictoc1.peer[491] HopCount ETV
vector 492 Tictoc1.peer[492] HopCount ETV
vector 493 Tictoc1.peer[493] HopCount ETV
vector 494 Tictoc1.peer[494] HopCount ETV
vector 495 Tictoc1.peer[495] HopCount ETV
vector 496 Tictoc1.peer[496] HopCount ETV
vector 497 Tictoc1.peer[497] HopCount ETV
vector 498 Tictoc1.peer[498] HopCount ETV
vector 499 Tictoc1.peer[499] HopCount ETV
0	7501	1.5	1
0	10001	2	2
0	12501	2.5	3
0	15001	3	4
0	18001	3.5	5
0	20501	4	6
0	23001	4.5	7
0	25501	5	8
0	28501	5.5	9
0	31001	6	10
0	33501	6.5	11
0	36001	7	12
0	39001	7.5	13
0	41501	8	14
0	44001	8.5	15
0	46501	9	16
0	49501	9.5	17
0	52001	10	18
0	54473	10.5	19
0	56938	11	20
0	59873	11.5	21
0	62311	12	22
0	64726	12.5	23
0	67109	13	24
0	69949	13.5	25
0	72744	14.1	26
0	75910	14.7	27
0	78646	15.3	28
0	81739	15.9	29
0	83999	16.5	30
0	87034	17.1	31
0	89596	17.7	32
0	92578	18.3	33
0	95048	18.9	34
0	97613	19.5	35
0	100046	20.1	36
0	102832	20.7	37
0	105210	21.3	38
0	107912	21.9	39
0	109938	22.5	40
0	112598	23.1	41
0	114807	23.7	42
0	117399	24.3	43
0	119559	24.9	44
0	121826	25.5	45
0	123946	26.1	46
0	126338	26.7	47
0	128386	27.3	48
0	130727	27.9	49
0	132498	28.5	50
0	134793	29.1	51
0	136736	29.7	52
0	138991	30.3	53
0	140844	30.9	54
0	142838	31.5	55
0	144671	32.1	56
0	146772	32.7	57
0	148557	33.3	58
0	150599	33.9	59
0	152137	34.5	60
0	154119	35.1	61
0	155793	35.7	62
0	157722	36.3	63
0	159309	36.9	64
0	161007	37.5	65
1	7502	1.5	1
1	10002	2	2
1	12502	2.5	3
1	15002	3	4
1	18002	3.5	5
1	20502	4	6
1	23002	4.5	7
1	25502	5	8
1	28502	5.5	9
1	31002	6	10
1	33502	6.5	11
1	36002	7	12
1	39002	7.5	13
1	41502	8	14
1	44002	8.5	15
1	46502	9	16
1	49502	9.5	17
2	7503	1.5	1
2	10003	2	2
2	12503	2.5	3
2	15003	3	4
2	18003	3.5	5
2	20503	4	6
2	23003	4.5	7
2	25503	5	8
2	28503	5.5	9
2	31003	6	10
2	33503	6.5	11
2	36003	7	12
2	39003	7.5	13
2	41503	8	14
2	44003	8.5	15
2	46503	9	16
2	49503	9.5	17
2	52003	10	18
2	54474	10.5	19
2	56939	11	20
2	59874	11.5	21
2	62312	12	22
2	64727	12.5	23
2	67110	13	24
2	69950	13.5	25
2	72292	14	26
2	74595	14.5	27
2	76867	15	28
2	79582	15.5	29
2	81806	16	30
2	84014	16.5	31
2	87048	17.1	32
2	89609	17.7	33
2	92591	18.3	34
2	95059	18.9	35
2	97624	19.5	36
2	100057	20.1	37
2	102842	20.7	38
2	105220	21.3	39
2	107922	21.9	40
2	109948	22.5	41
2	112608	23.1	42
2	114817	23.7	43
2	117409	24.3	44
2	119569	24.9	45
2	121834	25.5	46
2	123953	26.1	47
2	126345	26.7	48
2	128393	27.3	49
2	130734	27.9	50
2	132505	28.5	51
2	134800	29.1	52
2	136743	29.7	53
2	138998	30.3	54
2	140850	30.9	55
2	142844	31.5	56
2	144677	32.1	57
2	146778	32.7	58
2	148563	33.3	59
2	150605	33.9	60
2	152143	34.5	61
2	154125	35.1	62
2	155798	35.7	63
2	157727	36.3	64
2	159314	36.9	65
2	161012	37.5	66
2	162581	38.1	67
2	164378	38.7	68
2	165916	39.3	69
2	167667	39.9	70
2	168968	40.5	71
2	170655	41.1	72
2	172089	41.7	73
2	173748	42.3	74
2	175158	42.9	75
2	176652	43.5	76
2	178062	44.1	77
2	179721	44.7	78
2	181131	45.3	79
2	182790	45.9	80
2	184035	46.5	81
2	185694	47.1	82
2	187104	47.7	83
2	188763	48.3	84
2	190173	48.9	85
2	191667	49.5	86
2	193077	50.1	87
2	194736	50.7	88
2	196146	51.3	89
2	196650	51.9	90
2	197070	52.5	91
2	197574	53.1	92
2	197993	53.7	93
2	198473	54.3	94
2	198859	54.9	95
2	199293	55.5	96
2	199613	56.1	97
2	199943	56.7	98
2	200174	57.3	99
2	200376	57.9	100
3	7504	1.5	1
3	10004	2	2
3	12504	2.5	3
3	15004	3	4
3	18004	3.5	5
3	20504	4	6
3	23004	4.5	7
3	25504	5	8
3	28504	5.5	9
3	31004	6	10
3	33504	6.5	11
3	36004	7	12
3	39004	7.5	13
3	41504	8	14
3	44004	8.5	15
3	46504	9	16
3	49504	9.5	17
3	52004	10	18
3	54475	10.5	19
3	56940	11	20
3	59875	11.5	21
3	62313	12	22
3	64728	12.5	23
3	67111	13	24
3	69951	13.5	25
3	72293	14	26
3	74596	14.5	27
3	76868	15	28
3	79583	15.5	29
3	81807	16	30
3	84015	16.5	31
3	87049	17.1	32
3	89610	17.7	33
3	92592	18.3	34
3	95060	18.9	35
3	97625	19.5	36
3	100058	20.1	37
3	102843	20.7	38
3	105221	21.3	39
3	107923	21.9	40
3	109949	22.5	41
3	112609	23.1	42
3	114818	23.7	43
3	117410	24.3	44
3	119570	24.9	45
3	121835	25.5	46
3	123954	26.1	47
3	126346	26.7	48
3	128394	27.3	49
3	130735	27.9	50
3	132506	28.5	51
3	134801	29.1	52
3	136744	29.7	53
3	138999	30.3	54
3	140851	30.9	55
3	142845	31.5	56
4	7505	1.5	1
4	10005	2	2
4	12505	2.5	3
4	15005	3	4
4	18005	3.5	5
4	20505	4	6
4	23005	4.5	7
4	25505	5	8
4	28505	5.5	9
4	31005	6	10
4	33505	6.5	11
4	36005	7	12
4	39005	7.5	13
4	41505	8	14
4	44005	8.5	15
4	46505	9	16
4	49505	9.5	17
4	52005	10	18
4	54476	10.5	19
4	56941	11	20
4	59876	11.5	21
4	62314	12	22
4	64729	12.5	23
4	67112	13	24
4	69952	13.5	25
4	72294	14	26
4	74597	14.5	27
4	76869	15	28
4	79584	15.5	29
4	81808	16	30
4	84016	16.5	31
4	86198	17	32
4	88804	17.5	33
4	91350	18.1	34
4	94264	18.7	35
4	96760	19.3	36
4	99596	19.9	37
4	101693	20.5	38
4	104470	21.1	39
4	106789	21.7	40
4	109510	22.3	41
4	111777	22.9	42
4	114136	23.5	43
4	116345	24.1	44
4	118888	24.7	45
4	121058	25.3	46
4	123523	25.9	47
4	125366	26.5	48
4	127754	27.1	49
4	129765	27.7	50
4	132116	28.3	51
4	134063	28.9	52
4	136146	29.5	53
4	138075	30.1	54
4	140270	30.7	55
4	142151	31.3	56
4	144299	31.9	57
4	145914	32.5	58
4	148007	33.1	59
4	149755	33.7	60
4	151800	34.3	61
4	153478	34.9	62
4	155282	35.5	63
4	156935	36.1	64
4	158809	36.7	65
4	160421	37.3	66
4	162254	37.9	67
4	163636	38.5	68
4	165428	39.1	69
4	166936	39.7	70
4	168681	40.3	71
4	170113	40.9	72
4	171643	41.5	73
4	173053	42.1	74
4	174712	42.7	75
4	176122	43.3	76
4	177781	43.9	77
4	179026	44.5	78
4	180685	45.1	79
4	182095	45.7	80
4	183754	46.3	81
4	185164	46.9	82
4	186658	47.5	83
4	188068	48.1	84
4	189727	48.7	85
4	191137	49.3	86
4	192796	49.9	87
4	194041	50.5	88
4	195700	51.1	89
4	196450	51.7	90
4	196954	52.3	91
4	197374	52.9	92
4	197878	53.5	93
4	198285	54.1	94
4	198755	54.7	95
4	199131	55.3	96
4	199531	55.9	97
4	199822	56.5	98
4	200118	57.1	99
4	200307	57.7	100
5	7506	1.5	1
5	10006	2	2
5	12506	2.5	3
5	15006	3	4
5	18006	3.5	5
5	20506	4	6
5	23006	4.5	7
5	25506	5	8
5	28506	5.5	9
5	31006	6	10
5	33506	6.5	11
5	36006	7	12
5	39006	7.5	13
5	41506	8	14
5	44006	8.5	15
5	46506	9	16
5	49506	9.5	17
5	52006	10	18
5	54477	10.5	19
5	56942	11	20
5	59877	11.5	21
5	62315	12	22
5	64730	12.5	23
5	67113	13	24
5	69953	13.5	25
5	72295	14	26
5	74598	14.5	27
5	76870	15	28
5	89615	17.7	29
5	92597	18.3	30
5	95065	18.9	31
5	97630	19.5	32
5	100063	20.1	33
5	102848	20.7	34
5	105226	21.3	35
5	107928	21.9	36
5	109954	22.5	37
5	112614	23.1	38
5	114822	23.7	39
5	117414	24.3	40
5	119574	24.9	41
6	7507	1.5	1
6	10007	2	2
6	12507	2.5	3
6	15007	3	4
6	18007	3.5	5
6	20507	4	6
6	23007	4.5	7
6	25507	5	8
6	28507	5.5	9
6	31007	6	10
6	33507	6.5	11
6	36007	7	12
6	39007	7.5	13
6	41507	8	14
6	44007	8.5	15
6	46507	9	16
6	49507	9.5	17
6	52007	10	18
6	54478	10.5	19
6	56943	11	20
6	59878	11.5	21
6	62316	12	22
6	64731	12.5	23
6	67114	13	24
6	69954	13.5	25
6	72296	14	26
6	74599	14.5	27
6	76871	15	28
6	79585	15.5	29
6	81809	16	30
6	84017	16.5	31
6	86199	17	32
6	88805	17.5	33
6	91351	18.1	34
6	94265	18.7	35
6	96761	19.3	36
6	99597	19.9	37
6	101694	20.5	38
6	104471	21.1	39
6	106790	21.7	40
6	109511	22.3	41
6	111778	22.9	42
6	114137	23.5	43
6	116346	24.1	44
6	118889	24.7	45
6	121059	25.3	46
6	123524	25.9	47
6	125367	26.5	48
6	127755	27.1	49
6	129766	27.7	50
6	132117	28.3	51
6	134064	28.9	52
6	136147	29.5	53
6	138076	30.1	54
6	140271	30.7	55
6	142152	31.3	56
6	144300	31.9	57
6	145915	32.5	58
6	148008	33.1	59
6	149756	33.7	60
6	151801	34.3	61
6	153479	34.9	62
6	155283	35.5	63
6	156936	36.1	64
6	158810	36.7	65
6	160422	37.3	66
6	162255	37.9	67
6	163637	38.5	68
6	165429	39.1	69
6	166937	39.7	70
6	168682	40.3	71
6	170114	40.9	72
6	171644	41.5	73
6	173054	42.1	74
6	174713	42.7	75
6	176123	43.3	76
6	177782	43.9	77
6	179027	44.5	78
6	180686	45.1	79
6	182096	45.7	80
6	183755	46.3	81
6	185165	46.9	82
6	186659	47.5	83
6	188069	48.1	84
6	189728	48.7	85
6	191138	49.3	86
6	192797	49.9	87
6	194042	50.5	88
6	195701	51.1	89
6	196451	51.7	90
6	196955	52.3	91
6	197375	52.9	92
6	197879	53.5	93
6	198286	54.1	94
6	198756	54.7	95
6	199132	55.3	96
6	199532	55.9	97
6	199823	56.5	98
6	200119	57.1	99
6	200308	57.7	100
7	7508	1.5	1
7	10008	2	2
7	12508	2.5	3
7	15008	3	4
7	18008	3.5	5
7	20508	4	6
7	23008	4.5	7
7	25508	5	8
7	28508	5.5	9
7	31008	6	10
7	33508	6.5	11
7	36008	7	12
7	39008	7.5	13
7	41508	8	14
7	44008	8.5	15
7	46508	9	16
7	49508	9.5	17
7	52008	10	18
7	54479	10.5	19
7	56944	11	20
7	59879	11.5	21
7	62317	12	22
7	64732	12.5	23
7	67115	13	24
7	69955	13.5	25
7	72297	14	26
7	74600	14.5	27
8	7509	1.5	1
8	10009	2	2
8	12509	2.5	3
8	15009	3	4
8	18009	3.5	5
8	20509	4	6
8	23009	4.5	7
8	25509	5	8
8	28509	5.5	9
8	31009	6	10
8	33509	6.5	11
8	36009	7	12
8	39009	7.5	13
8	41509	8	14
8	44009	8.5	15
8	46509	9	16
8	49509	9.5	17
8	52009	10	18
8	54480	10.5	19
8	56945	11	20
8	59880	11.5	21
8	62318	12	22
8	64733	12.5	23
8	67116	13	24
8	69956	13.5	25
8	72298	14	26
8	74601	14.5	27
8	76873	15	28
8	79586	15.5	29
8	81810	16	30
8	84018	16.5	31
8	86200	17	32
8	88806	17.5	33
8	90942	18	34
8	93059	18.5	35
8	95143	19	36
8	97636	19.5	37
8	99682	20	38
8	101703	20.5	39
8	103700	21	40
8	106078	21.5	41
8	108033	22	42
8	109968	22.5	43
8	111884	23	44
8	114156	23.5	45
8	116015	24	46
8	117861	24.5	47
8	119688	25	48
8	121860	25.5	49
8	123649	26	50
8	125392	26.5	51
8	127108	27	52
8	129174	27.5	53
8	130862	28	54
8	132535	28.5	55
8	134189	29	56
8	136172	29.5	57
8	137803	30	58