file 631491 1707232721                                          
version 3
run Tictoc1-0-20240206-12:18:10-5816
attr configname Tictoc1
attr datetime 20240206-12:18:10
attr datetimef 20240206-121810
attr experiment Tictoc1
attr inifile omnetpp.ini
attr iterationvars ""
attr iterationvarsd ""
attr iterationvarsf ""
attr measurement ""
attr network Tictoc1
attr processid 5816
attr repetition 0
attr replication #0
attr resultdir results
attr runnumber 0
attr seedset 0
config network Tictoc1

vector 0 Tictoc1.peer[0] HopCount ETV
vector 1 Tictoc1.peer[1] HopCount ETV
vector 2 Tictoc1.peer[2] HopCount ETV
vector 3 Tictoc1.peer[3] HopCount ETV
vector 4 Tictoc1.peer[4] HopCount ETV
vector 5 Tictoc1.peer[5] HopCount ETV
vector 6 Tictoc1.peer[6] HopCount ETV
vector 7 Tictoc1.peer[7] HopCount ETV
vector 8 Tictoc1.peer[8] HopCount ETV
vector 9 Tictoc1.peer[9] HopCount ETV
vector 10 Tictoc1.peer[10] HopCount ETV
vector 11 Tictoc1.peer[11] HopCount ETV
vector 12 Tictoc1.peer[12] HopCount ETV
vector 13 Tictoc1.peer[13] HopCount ETV
vector 14 Tictoc1.peer[14] HopCount ETV
vector 15 Tictoc1.peer[15] HopCount ETV
vector 16 Tictoc1.peer[16] HopCount ETV
vector 17 Tictoc1.peer[17] HopCount ETV
vector 18 Tictoc1.peer[18] HopCount ETV
vector 19 Tictoc1.peer[19] HopCount ETV
vector 20 Tictoc1.peer[20] HopCount ETV
vector 21 Tictoc1.peer[21] HopCount ETV
vector 22 Tictoc1.peer[22] HopCount ETV
vector 23 Tictoc1.peer[23] HopCount ETV
vector 24 Tictoc1.peer[24] HopCount ETV
vector 25 Tictoc1.peer[25] HopCount ETV
vector 26 Tictoc1.peer[26] HopCount ETV
vector 27 Tictoc1.peer[27] HopCount ETV
vector 28 Tictoc1.peer[28] HopCount ETV
vector 29 Tictoc1.peer[29] HopCount ETV
vector 30 Tictoc1.peer[30] HopCount ETV
vector 31 Tictoc1.peer[31] HopCount ETV
vector 32 Tictoc1.peer[32] HopCount ETV
vector 33 Tictoc1.peer[33] HopCount ETV
vector 34 Tictoc1.peer[34] HopCount ETV
vector 35 Tictoc1.peer[35] HopCount ETV
vector 36 Tictoc1.peer[36] HopCount ETV
vector 37 Tictoc1.peer[37] HopCount ETV
vector 38 Tictoc1.peer[38] HopCount ETV
vector 39 Tictoc1.peer[39] HopCount ETV
vector 40 Tictoc1.peer[40] HopCount ETV
vector 41 Tictoc1.peer[41] HopCount ETV
vector 42 Tictoc1.peer[42] HopCount ETV
vector 43 Tictoc1.peer[43] HopCount ETV
vector 44 Tictoc1.peer[44] HopCount ETV
vector 45 Tictoc1.peer[45] HopCount ETV
vector 46 Tictoc1.peer[46] HopCount ETV
vector 47 Tictoc1.peer[47] HopCount ETV
vector 48 Tictoc1.peer[48] HopCount ETV
vector 49 Tictoc1.peer[49] HopCount ETV
vector 50 Tictoc1.peer[50] HopCount ETV
vector 51 Tictoc1.peer[51] HopCount ETV
vector 52 Tictoc1.peer[52] HopCount ETV
vector 53 Tictoc1.peer[53] HopCount ETV
vector 54 Tictoc1.peer[54] HopCount ETV
vector 55 Tictoc1.peer[55] HopCount ETV
vector 56 Tictoc1.peer[56] HopCount ETV
vector 57 Tictoc1.peer[57] HopCount ETV
vector 58 Tictoc1.peer[58] HopCount ETV
vector 59 Tictoc1.peer[59] HopCount ETV
vector 60 Tictoc1.peer[60] HopCount ETV
vector 61 Tictoc1.peer[61] HopCount ETV
vector 62 Tictoc1.peer[62] HopCount ETV
vector 63 Tictoc1.peer[63] HopCount ETV
vector 64 Tictoc1.peer[64] HopCount ETV
vector 65 Tictoc1.peer[65] HopCount ETV
vector 66 Tictoc1.peer[66] HopCount ETV
vector 67 Tictoc1.peer[67] HopCount ETV
vector 68 Tictoc1.peer[68] HopCount ETV
vector 69 Tictoc1.peer[69] HopCount ETV
vector 70 Tictoc1.peer[70] HopCount ETV
vector 71 Tictoc1.peer[71] HopCount ETV
vector 72 Tictoc1.peer[72] HopCount ETV
vector 73 Tictoc1.peer[73] HopCount ETV
vector 74 Tictoc1.peer[74] HopCount ETV
vector 75 Tictoc1.peer[75] HopCount ETV
vector 76 Tictoc1.peer[76] HopCount ETV
vector 77 Tictoc1.peer[77] HopCount ETV
vector 78 Tictoc1.peer[78] HopCount ETV
vector 79 Tictoc1.peer[79] HopCount ETV
vector 80 Tictoc1.peer[80] HopCount ETV
vector 81 Tictoc1.peer[81] HopCount ETV
vector 82 Tictoc1.peer[82] HopCount ETV
vector 83 Tictoc1.peer[83] HopCount ETV
vector 84 Tictoc1.peer[84] HopCount ETV
vector 85 Tictoc1.peer[85] HopCount ETV
vector 86 Tictoc1.peer[86] HopCount ETV
vector 87 Tictoc1.peer[87] HopCount ETV
vector 88 Tictoc1.peer[88] HopCount ETV
vector 89 Tictoc1.peer[89] HopCount ETV
vector 90 Tictoc1.peer[90] HopCount ETV
vector 91 Tictoc1.peer[91] HopCount ETV
vector 92 Tictoc1.peer[92] HopCount ETV
vector 93 Tictoc1.peer[93] HopCount ETV
vector 94 Tictoc1.peer[94] HopCount ETV
vector 95 Tictoc1.peer[95] HopCount ETV
vector 96 Tictoc1.peer[96] HopCount ETV
vector 97 Tictoc1.peer[97] HopCount ETV
vector 98 Tictoc1.peer[98] HopCount ETV
vector 99 Tictoc1.peer[99] HopCount ETV
vector 100 Tictoc1.peer[100] HopCount ETV
vector 101 Tictoc1.peer[101] HopCount ETV
vector 102 Tictoc1.peer[102] HopCount ETV
vector 103 Tictoc1.peer[103] HopCount ETV
vector 104 Tictoc1.peer[104] HopCount ETV
vector 105 Tictoc1.peer[105] HopCount ETV
vector 106 Tictoc1.peer[106] HopCount ETV
vector 107 Tictoc1.peer[107] HopCount ETV
vector 108 Tictoc1.peer[108] HopCount ETV
vector 109 Tictoc1.peer[109] HopCount ETV
vector 110 Tictoc1.peer[110] HopCount ETV
vector 111 Tictoc1.peer[111] HopCount ETV
vector 112 Tictoc1.peer[112] HopCount ETV
vector 113 Tictoc1.peer[113] HopCount ETV
vector 114 Tictoc1.peer[114] HopCount ETV
vector 115 Tictoc1.peer[115] HopCount ETV
vector 116 Tictoc1.peer[116] HopCount ETV
vector 117 Tictoc1.peer[117] HopCount ETV
vector 118 Tictoc1.peer[118] HopCount ETV
vector 119 Tictoc1.peer[119] HopCount ETV
vector 120 Tictoc1.peer[120] HopCount ETV
vector 121 Tictoc1.peer[121] HopCount ETV
vector 122 Tictoc1.peer[122] HopCount ETV
vector 123 Tictoc1.peer[123] HopCount ETV
vector 124 Tictoc1.peer[124] HopCount ETV
vector 125 Tictoc1.peer[125] HopCount ETV
vector 126 Tictoc1.peer[126] HopCount ETV
vector 127 Tictoc1.peer[127] HopCount ETV
vector 128 Tictoc1.peer[128] HopCount ETV
vector 129 Tictoc1.peer[129] HopCount ETV
vector 130 Tictoc1.peer[130] HopCount ETV
vector 131 Tictoc1.peer[131] HopCount ETV
vector 132 Tictoc1.peer[132] HopCount ETV
vector 133 Tictoc1.peer[133] HopCount ETV
vector 134 Tictoc1.peer[134] HopCount ETV
vector 135 Tictoc1.peer[135] HopCount ETV
vector 136 Tictoc1.peer[136] HopCount ETV
vector 137 Tictoc1.peer[137] HopCount ETV
vector 138 Tictoc1.peer[138] HopCount ETV
vector 139 Tictoc1.peer[139] HopCount ETV
vector 140 Tictoc1.peer[140] HopCount ETV
vector 141 Tictoc1.peer[141] HopCount ETV
vector 142 Tictoc1.peer[142] HopCount ETV
vector 143 Tictoc1.peer[143] HopCount ETV
vector 144 Tictoc1.peer[144] HopCount ETV
vector 145 Tictoc1.peer[145] HopCount ETV
vector 146 Tictoc1.peer[146] HopCount ETV
vector 147 Tictoc1.peer[147] HopCount ETV
vector 148 Tictoc1.peer[148] HopCount ETV
vector 149 Tictoc1.peer[149] HopCount ETV
vector 150 Tictoc1.peer[150] HopCount ETV
vector 151 Tictoc1.peer[151] HopCount ETV
vector 152 Tictoc1.peer[152] HopCount ETV
vector 153 Tictoc1.peer[153] HopCount ETV
vector 154 Tictoc1.peer[154] HopCount ETV
vector 155 Tictoc1.peer[155] HopCount ETV
vector 156 Tictoc1.peer[156] HopCount ETV
vector 157 Tictoc1.peer[157] HopCount ETV
vector 158 Tictoc1.peer[158] HopCount ETV
vector 159 Tictoc1.peer[159] HopCount ETV
vector 160 Tictoc1.peer[160] HopCount ETV
vector 161 Tictoc1.peer[161] HopCount ETV
vector 162 Tictoc1.peer[162] HopCount ETV
vector 163 Tictoc1.peer[163] HopCount ETV
vector 164 Tictoc1.peer[164] HopCount ETV
vector 165 Tictoc1.peer[165] HopCount ETV
vector 166 Tictoc1.peer[166] HopCount ETV
vector 167 Tictoc1.peer[167] HopCount ETV
vector 168 Tictoc1.peer[168] HopCount ETV
vector 169 Tictoc1.peer[169] HopCount ETV
vector 170 Tictoc1.peer[170] HopCount ETV
vector 171 Tictoc1.peer[171] HopCount ETV
vector 172 Tictoc1.peer[172] HopCount ETV
vector 173 Tictoc1.peer[173] HopCount ETV
vector 174 Tictoc1.peer[174] HopCount ETV
vector 175 Tictoc1.peer[175] HopCount ETV
vector 176 Tictoc1.peer[176] HopCount ETV
vector 177 Tictoc1.peer[177] HopCount ETV
vector 178 Tictoc1.peer[178] HopCount ETV
vector 179 Tictoc1.peer[179] HopCount ETV
vector 180 Tictoc1.peer[180] HopCount ETV
vector 181 Tictoc1.peer[181] HopCount ETV
vector 182 Tictoc1.peer[182] HopCount ETV
vector 183 Tictoc1.peer[183] HopCount ETV
vector 184 Tictoc1.peer[184] HopCount ETV
vector 185 Tictoc1.peer[185] HopCount ETV
vector 186 Tictoc1.peer[186] HopCount ETV
vector 187 Tictoc1.peer[187] HopCount ETV
vector 188 Tictoc1.peer[188] HopCount ETV
vector 189 Tictoc1.peer[189] HopCount ETV
vector 190 Tictoc1.peer[190] HopCount ETV
vector 191 Tictoc1.peer[191] HopCount ETV
vector 192 Tictoc1.peer[192] HopCount ETV
vector 193 Tictoc1.peer[193] HopCount ETV
vector 194 Tictoc1.peer[194] HopCount ETV
vector 195 Tictoc1.peer[195] HopCount ETV
vector 196 Tictoc1.peer[196] HopCount ETV
vector 197 Tictoc1.peer[197] HopCount ETV
vector 198 Tictoc1.peer[198] HopCount ETV
vector 199 Tictoc1.peer[199] HopCount ETV
vector 200 Tictoc1.peer[200] HopCount ETV
vector 201 Tictoc1.peer[201] HopCount ETV
vector 202 Tictoc1.peer[202] HopCount ETV
vector 203 Tictoc1.peer[203] HopCount ETV
vector 204 Tictoc1.peer[204] HopCount ETV
vector 205 Tictoc1.peer[205] HopCount ETV
vector 206 Tictoc1.peer[206] HopCount ETV
vector 207 Tictoc1.peer[207] HopCount ETV
vector 208 Tictoc1.peer[208] HopCount ETV
vector 209 Tictoc1.peer[209] HopCount ETV
vector 210 Tictoc1.peer[210] HopCount ETV
vector 211 Tictoc1.peer[211] HopCount ETV
vector 212 Tictoc1.peer[212] HopCount ETV
vector 213 Tictoc1.peer[213] HopCount ETV
vector 214 Tictoc1.peer[214] HopCount ETV
vector 215 Tictoc1.peer[215] HopCount ETV
vector 216 Tictoc1.peer[216] HopCount ETV
vector 217 Tictoc1.peer[217] HopCount ETV
vector 218 Tictoc1.peer[218] HopCount ETV
vector 219 Tictoc1.peer[219] HopCount ETV
vector 220 Tictoc1.peer[220] HopCount ETV
vector 221 Tictoc1.peer[221] HopCount ETV
vector 222 Tictoc1.peer[222] HopCount ETV
vector 223 Tictoc1.peer[223] HopCount ETV
vector 224 Tictoc1.peer[224] HopCount ETV
vector 225 Tictoc1.peer[225] HopCount ETV
vector 226 Tictoc1.peer[226] HopCount ETV
vector 227 Tictoc1.peer[227] HopCount ETV
vector 228 Tictoc1.peer[228] HopCount ETV
vector 229 Tictoc1.peer[229] HopCount ETV
vector 230 Tictoc1.peer[230] HopCount ETV
vector 231 Tictoc1.peer[231] HopCount ETV
vector 232 Tictoc1.peer[232] HopCount ETV
vector 233 Tictoc1.peer[233] HopCount ETV
vector 234 Tictoc1.peer[234] HopCount ETV
vector 235 Tictoc1.peer[235] HopCount ETV
vector 236 Tictoc1.peer[236] HopCount ETV
vector 237 Tictoc1.peer[237] HopCount ETV
vector 238 Tictoc1.peer[238] HopCount ETV
vector 239 Tictoc1.peer[239] HopCount ETV
vector 240 Tictoc1.peer[240] HopCount ETV
vector 241 Tictoc1.peer[241] HopCount ETV
vector 242 Tictoc1.peer[242] HopCount ETV
vector 243 Tictoc1.peer[243] HopCount ETV
vector 244 Tictoc1.peer[244] HopCount ETV
vector 245 Tictoc1.peer[245] HopCount ETV
vector 246 Tictoc1.peer[246] HopCount ETV
vector 247 Tictoc1.peer[247] HopCount ETV
vector 248 Tictoc1.peer[248] HopCount ETV
vector 249 Tictoc1.peer[249] HopCount ETV
vector 250 Tictoc1.peer[250] HopCount ETV
vector 251 Tictoc1.peer[251] HopCount ETV
vector 252 Tictoc1.peer[252] HopCount ETV
vector 253 Tictoc1.peer[253] HopCount ETV
vector 254 Tictoc1.peer[254] HopCount ETV
vector 255 Tictoc1.peer[255] HopCount ETV
vector 256 Tictoc1.peer[256] HopCount ETV
vector 257 Tictoc1.peer[257] HopCount ETV
vector 258 Tictoc1.peer[258] HopCount ETV
vector 259 Tictoc1.peer[259] HopCount ETV
vector 260 Tictoc1.peer[260] HopCount ETV
vector 261 Tictoc1.peer[261] HopCount ETV
vector 262 Tictoc1.peer[262] HopCount ETV
vector 263 Tictoc1.peer[263] HopCount ETV
vector 264 Tictoc1.peer[264] HopCount ETV
vector 265 Tictoc1.peer[265] HopCount ETV
vector 266 Tictoc1.peer[266] HopCount ETV
vector 267 Tictoc1.peer[267] HopCount ETV
vector 268 Tictoc1.peer[268] HopCount ETV
vector 269 Tictoc1.peer[269] HopCount ETV
vector 270 Tictoc1.peer[270] HopCount ETV
vector 271 Tictoc1.peer[271] HopCount ETV
vector 272 Tictoc1.peer[272] HopCount ETV
vector 273 Tictoc1.peer[273] HopCount ETV
vector 274 Tictoc1.peer[274] HopCount ETV
vector 275 Tictoc1.peer[275] HopCount ETV
vector 276 Tictoc1.peer[276] HopCount ETV
vector 277 Tictoc1.peer[277] HopCount ETV
vector 278 Tictoc1.peer[278] HopCount ETV
vector 279 Tictoc1.peer[279] HopCount ETV
vector 280 Tictoc1.peer[280] HopCount ETV
vector 281 Tictoc1.peer[281] HopCount ETV
vector 282 Tictoc1.peer[282] HopCount ETV
vector 283 Tictoc1.peer[283] HopCount ETV
vector 284 Tictoc1.peer[284] HopCount ETV
vector 285 Tictoc1.peer[285] HopCount ETV
vector 286 Tictoc1.peer[286] HopCount ETV
vector 287 Tictoc1.peer[287] HopCount ETV
vector 288 Tictoc1.peer[288] HopCount ETV
vector 289 Tictoc1.peer[289] HopCount ETV
vector 290 Tictoc1.peer[290] HopCount ETV
vector 291 Tictoc1.peer[291] HopCount ETV
vector 292 Tictoc1.peer[292] HopCount ETV
vector 293 Tictoc1.peer[293] HopCount ETV
vector 294 Tictoc1.peer[294] HopCount ETV
vector 295 Tictoc1.peer[295] HopCount ETV
vector 296 Tictoc1.peer[296] HopCount ETV
vector 297 Tictoc1.peer[297] HopCount ETV
vector 298 Tictoc1.peer[298] HopCount ETV
vector 299 Tictoc1.peer[299] HopCount ETV
vector 300 Tictoc1.peer[300] HopCount ETV
vector 301 Tictoc1.peer[301] HopCount ETV
vector 302 Tictoc1.peer[302] HopCount ETV
vector 303 Tictoc1.peer[303] HopCount ETV
vector 304 Tictoc1.peer[304] HopCount ETV
vector 305 Tictoc1.peer[305] HopCount ETV
vector 306 Tictoc1.peer[306] HopCount ETV
vector 307 Tictoc1.peer[307] HopCount ETV
vector 308 Tictoc1.peer[308] HopCount ETV
vector 309 Tictoc1.peer[309] HopCount ETV
vector 310 Tictoc1.peer[310] HopCount ETV
vector 311 Tictoc1.peer[311] HopCount ETV
vector 312 Tictoc1.peer[312] HopCount ETV
vector 313 Tictoc1.peer[313] HopCount ETV
vector 314 Tictoc1.peer[314] HopCount ETV
vector 315 Tictoc1.peer[315] HopCount ETV
vector 316 Tictoc1.peer[316] HopCount ETV
vector 317 Tictoc1.peer[317] HopCount ETV
vector 318 Tictoc1.peer[318] HopCount ETV
vector 319 Tictoc1.peer[319] HopCount ETV
vector 320 Tictoc1.peer[320] HopCount ETV
vector 321 Tictoc1.peer[321] HopCount ETV
vector 322 Tictoc1.peer[322] HopCount ETV
vector 323 Tictoc1.peer[323] HopCount ETV
vector 324 Tictoc1.peer[324] HopCount ETV
vector 325 Tictoc1.peer[325] HopCount ETV
vector 326 Tictoc1.peer[326] HopCount ETV
vector 327 Tictoc1.peer[327] HopCount ETV
vector 328 Tictoc1.peer[328] HopCount ETV
vector 329 Tictoc1.peer[329] HopCount ETV
vector 330 Tictoc1.peer[330] HopCount ETV
vector 331 Tictoc1.peer[331] HopCount ETV
vector 332 Tictoc1.peer[332] HopCount ETV
vector 333 Tictoc1.peer[333] HopCount ETV
vector 334 Tictoc1.peer[334] HopCount ETV
vector 335 Tictoc1.peer[335] HopCount ETV
vector 336 Tictoc1.peer[336] HopCount ETV
vector 337 Tictoc1.peer[337] HopCount ETV
vector 338 Tictoc1.peer[338] HopCount ETV
vector 339 Tictoc1.peer[339] HopCount ETV
vector 340 Tictoc1.peer[340] HopCount ETV
vector 341 Tictoc1.peer[341] HopCount ETV
vector 342 Tictoc1.peer[342] HopCount ETV
vector 343 Tictoc1.peer[343] HopCount ETV
vector 344 Tictoc1.peer[344] HopCount ETV
vector 345 Tictoc1.peer[345] HopCount ETV
vector 346 Tictoc1.peer[346] HopCount ETV
vector 347 Tictoc1.peer[347] HopCount ETV
vector 348 Tictoc1.peer[348] HopCount ETV
vector 349 Tictoc1.peer[349] HopCount ETV
vector 350 Tictoc1.peer[350] HopCount ETV
vector 351 Tictoc1.peer[351] HopCount ETV
vector 352 Tictoc1.peer[352] HopCount ETV
vector 353 Tictoc1.peer[353] HopCount ETV
vector 354 Tictoc1.peer[354] HopCount ETV
vector 355 Tictoc1.peer[355] HopCount ETV
vector 356 Tictoc1.peer[356] HopCount ETV
vector 357 Tictoc1.peer[357] HopCount ETV
vector 358 Tictoc1.peer[358] HopCount ETV
vector 359 Tictoc1.peer[359] HopCount ETV
vector 360 Tictoc1.peer[360] HopCount ETV
vector 361 Tictoc1.peer[361] HopCount ETV
vector 362 Tictoc1.peer[362] HopCount ETV
vector 363 Tictoc1.peer[363] HopCount ETV
vector 364 Tictoc1.peer[364] HopCount ETV
vector 365 Tictoc1.peer[365] HopCount ETV
vector 366 Tictoc1.peer[366] HopCount ETV
vector 367 Tictoc1.peer[367] HopCount ETV
vector 368 Tictoc1.peer[368] HopCount ETV
vector 369 Tictoc1.peer[369] HopCount ETV
vector 370 Tictoc1.peer[370] HopCount ETV
vector 371 Tictoc1.peer[371] HopCount ETV
vector 372 Tictoc1.peer[372] HopCount ETV
vector 373 Tictoc1.peer[373] HopCount ETV
vector 374 Tictoc1.peer[374] HopCount ETV
vector 375 Tictoc1.peer[375] HopCount ETV
vector 376 Tictoc1.peer[376] HopCount ETV
vector 377 Tictoc1.peer[377] HopCount ETV
vector 378 Tictoc1.peer[378] HopCount ETV
vector 379 Tictoc1.peer[379] HopCount ETV
vector 380 Tictoc1.peer[380] HopCount ETV
vector 381 Tictoc1.peer[381] HopCount ETV
vector 382 Tictoc1.peer[382] HopCount ETV
vector 383 Tictoc1.peer[383] HopCount ETV
vector 384 Tictoc1.peer[384] HopCount ETV
vector 385 Tictoc1.peer[385] HopCount ETV
vector 386 Tictoc1.peer[386] HopCount ETV
vector 387 Tictoc1.peer[387] HopCount ETV
vector 388 Tictoc1.peer[388] HopCount ETV
vector 389 Tictoc1.peer[389] HopCount ETV
vector 390 Tictoc1.peer[390] HopCount ETV
vector 391 Tictoc1.peer[391] HopCount ETV
vector 392 Tictoc1.peer[392] HopCount ETV
vector 393 Tictoc1.peer[393] HopCount ETV
vector 394 Tictoc1.peer[394] HopCount ETV
vector 395 Tictoc1.peer[395] HopCount ETV
vector 396 Tictoc1.peer[396] HopCount ETV
vector 397 Tictoc1.peer[397] HopCount ETV
vector 398 Tictoc1.peer[398] HopCount ETV
vector 399 Tictoc1.peer[399] HopCount ETV
vector 400 Tictoc1.peer[400] HopCount ETV
vector 401 Tictoc1.peer[401] HopCount ETV
vector 402 Tictoc1.peer[402] HopCount ETV
vector 403 Tictoc1.peer[403] HopCount ETV
vector 404 Tictoc1.peer[404] HopCount ETV
vector 405 Tictoc1.peer[405] HopCount ETV
vector 406 Tictoc1.peer[406] HopCount ETV
vector 407 Tictoc1.peer[407] HopCount ETV
vector 408 Tictoc1.peer[408] HopCount ETV
vector 409 Tictoc1.peer[409] HopCount ETV
vector 410 Tictoc1.peer[410] HopCount ETV
vector 411 Tictoc1.peer[411] HopCount ETV
vector 412 Tictoc1.peer[412] HopCount ETV
vector 413 Tictoc1.peer[413] HopCount ETV
vector 414 Tictoc1.peer[414] HopCount ETV
vector 415 Tictoc1.peer[415] HopCount ETV
vector 416 Tictoc1.peer[416] HopCount ETV
vector 417 Tictoc1.peer[417] HopCount ETV
vector 418 Tictoc1.peer[418] HopCount ETV
vector 419 Tictoc1.peer[419] HopCount ETV
vector 420 Tictoc1.peer[420] HopCount ETV
vector 421 Tictoc1.peer[421] HopCount ETV
vector 422 Tictoc1.peer[422] HopCount ETV
vector 423 Tictoc1.peer[423] HopCount ETV
vector 424 Tictoc1.peer[424] HopCount ETV
vector 425 Tictoc1.peer[425] HopCount ETV
vector 426 Tictoc1.peer[426] HopCount ETV
vector 427 Tictoc1.peer[427] HopCount ETV
vector 428 Tictoc1.peer[428] HopCount ETV
vector 429 Tictoc1.peer[429] HopCount ETV
vector 430 Tictoc1.peer[430] HopCount ETV
vector 431 Tictoc1.peer[431] HopCount ETV
vector 432 Tictoc1.peer[432] HopCount ETV
vector 433 Tictoc1.peer[433] HopCount ETV
vector 434 Tictoc1.peer[434] HopCount ETV
vector 435 Tictoc1.peer[435] HopCount ETV
vector 436 Tictoc1.peer[436] HopCount ETV
vector 437 Tictoc1.peer[437] HopCount ETV
vector 438 Tictoc1.peer[438] HopCount ETV
vector 439 Tictoc1.peer[439] HopCount ETV
vector 440 Tictoc1.peer[440] HopCount ETV
vector 441 Tictoc1.peer[441] HopCount ETV
vector 442 Tictoc1.peer[442] HopCount ETV
vector 443 Tictoc1.peer[443] HopCount ETV
vector 444 Tictoc1.peer[444] HopCount ETV
vector 445 Tictoc1.peer[445] HopCount ETV
vector 446 Tictoc1.peer[446] HopCount ETV
vector 447 Tictoc1.peer[447] HopCount ETV
vector 448 Tictoc1.peer[448] HopCount ETV
vector 449 Tictoc1.peer[449] HopCount ETV
vector 450 Tictoc1.peer[450] HopCount ETV
vector 451 Tictoc1.peer[451] HopCount ETV
vector 452 Tictoc1.peer[452] HopCount ETV
vector 453 Tictoc1.peer[453] HopCount ETV
vector 454 Tictoc1.peer[454] HopCount ETV
vector 455 Tictoc1.peer[455] HopCount ETV
vector 456 Tictoc1.peer[456] HopCount ETV
vector 457 Tictoc1.peer[457] HopCount ETV
vector 458 Tictoc1.peer[458] HopCount ETV
vector 459 Tictoc1.peer[459] HopCount ETV
vector 460 Tictoc1.peer[460] HopCount ETV
vector 461 Tictoc1.peer[461] HopCount ETV
vector 462 Tictoc1.peer[462] HopCount ETV
vector 463 Tictoc1.peer[463] HopCount ETV
vector 464 Tictoc1.peer[464] HopCount ETV
vector 465 Tictoc1.peer[465] HopCount ETV
vector 466 Tictoc1.peer[466] HopCount ETV
vector 467 Tictoc1.peer[467] HopCount ETV
vector 468 Tictoc1.peer[468] HopCount ETV
vector 469 Tictoc1.peer[469] HopCount ETV
vector 470 Tictoc1.peer[470] HopCount ETV
vector 471 Tictoc1.peer[471] HopCount ETV
vector 472 Tictoc1.peer[472] HopCount ETV
vector 473 Tictoc1.peer[473] HopCount ETV
vector 474 Tictoc1.peer[474] HopCount ETV
vector 475 Tictoc1.peer[475] HopCount ETV
vector 476 Tictoc1.peer[476] HopCount ETV
vector 477 Tictoc1.peer[477] HopCount ETV
vector 478 Tictoc1.peer[478] HopCount ETV
vector 479 Tictoc1.peer[479] HopCount ETV
vector 480 Tictoc1.peer[480] HopCount ETV
vector 481 Tictoc1.peer[481] HopCount ETV
vector 482 Tictoc1.peer[482] HopCount ETV
vector 483 Tictoc1.peer[483] HopCount ETV
vector 484 Tictoc1.peer[484] HopCount ETV
vector 485 Tictoc1.peer[485] HopCount ETV
vector 486 Tictoc1.peer[486] HopCount ETV
vector 487 Tictoc1.peer[487] HopCount ETV
vector 488 Tictoc1.peer[488] HopCount ETV
vector 489 Tictoc1.peer[489] HopCount ETV
vector 490 Tictoc1.peer[490] HopCount ETV
vector 491 Tictoc1.peer[491] HopCount ETV
vector 492 Tictoc1.peer[492] HopCount ETV
vector 493 Tictoc1.peer[493] HopCount ETV
vector 494 Tictoc1.peer[494] HopCount ETV
vector 495 Tictoc1.peer[495] HopCount ETV
vector 496 Tictoc1.peer[496] HopCount ETV
vector 497 Tictoc1.peer[497] HopCount ETV
vector 498 Tictoc1.peer[498] HopCount ETV
vector 499 Tictoc1.peer[499] HopCount ETV
0	21209 1019 7501 161007 1.5 37.5 65 1 65 2145 93665
1	22228 229 7502 49502 1.5 9.5 17 1 17 153 1785
2	22457 1608 7503 200376 1.5 57.9 100 1 100 5050 338350
3	24065 859 7504 142845 1.5 31.5 56 1 56 1596 60116
4	24924 1605 7505 200307 1.5 57.7 100 1 100 5050 338350
5	26529 610 7506 119574 1.5 24.9 41 1 41 861 23821
6	27139 1605 7507 200308 1.5 57.7 100 1 100 5050 338350
7	28744 379 7508 74600 1.5 14.5 27 1 27 378 6930
8	29123 1536 7509 195258 1.5 51 100 1 100 5050 338350
9	30659 724 7510 133465 1.5 28.7 48 1 48 1176 38024
10	31383 1703 7511 200266 1.5 57.5 100 1 100 5050 338350
11	33086 604 7512 103611 1.5 20.9 39 1 39 780 20540
12	33690 1703 7513 200267 1.5 57.5 100 1 100 5050 338350
13	35393 453 7514 81815 1.5 16 30 1 30 465 9455
14	35846 1701 7515 200177 1.5 57.3 100 1 100 5050 338350
15	37547 534 7516 93064 1.5 18.5 35 1 35 630 14910
16	38081 1701 7517 200178 1.5 57.3 100 1 100 5050 338350
17	39782 1012 7518 158313 1.5 36.6 62 1 62 1953 81375
18	40794 1696 7519 200018 1.5 56.9 100 1 100 5050 338350
19	42490 795 7520 127001 1.5 26.9 50 1 50 1275 42925
20	43285 1694 7521 199949 1.5 56.7 100 1 100 5050 338350
21	44979 374 7522 69969 1.5 13.5 25 1 25 325 5525
22	45353 1692 7523 199832 1.5 56.5 100 1 100 5050 338350
23	47045 470 7524 84031 1.5 16.5 31 1 31 496 10416
24	47515 1688 7525 199623 1.5 56.1 100 1 100 5050 338350
25	49203 440 7526 90872 1.5 17.9 29 1 29 435 8555
26	49643 1684 7527 199396 1.5 55.7 100 1 100 5050 338350
27	51327 310 7528 59899 1.5 11.5 21 1 21 231 3311
28	51637 1682 7529 199308 1.5 55.5 100 1 100 5050 338350
29	53319 342 7530 64753 1.5 12.5 23 1 23 276 4324
30	53661 1678 7531 199053 1.5 55.1 100 1 100 5050 338350
31	55339 1137 7532 159937 1.5 37.1 70 1 70 2485 116795
32	56476 1674 7533 198775 1.5 54.7 100 1 100 5050 338350
33	58150 777 7534 132523 1.5 28.5 49 1 49 1225 40425
34	58927 1674 7535 198776 1.5 54.7 100 1 100 5050 338350
35	60601 743 7536 129165 1.5 27.5 47 1 47 1128 35720
36	61344 1636 7537 195259 1.5 51 100 1 100 5050 338350
37	62980 1015 7538 155309 1.5 35.5 63 1 63 2016 85344
38	63995 1670 7539 198494 1.5 54.3 100 1 100 5050 338350
39	65665 657 7540 118902 1.5 24.7 42 1 42 903 25585
40	66322 1636 7541 195260 1.5 51 100 1 100 5050 338350
41	67958 719 7542 132449 1.5 28.4 46 1 46 1081 33511
42	68677 1636 7543 195261 1.5 51 100 1 100 5050 338350
43	70313 374 7544 69989 1.5 13.5 25 1 25 325 5525
44	70687 1636 7545 195262 1.5 51 100 1 100 5050 338350
45	72323 985 7546 153499 1.5 34.9 61 1 61 1891 77531
46	73308 1636 7547 195263 1.5 51 100 1 100 5050 338350
47	74944 853 7548 144296 1.5 31.9 52 1 52 1378 48230
48	75797 1636 7549 195264 1.5 51 100 1 100 5050 338350
49	77433 984 7550 166493 1.5 39.5 60 1 60 1830 73810
50	78417 1636 7551 195265 1.5 51 100 1 100 5050 338350
51	80053 558 7552 106795 1.5 21.7 36 1 36 666 16206
52	80611 1636 7553 195266 1.5 51 100 1 100 5050 338350
53	82247 1151 7554 166494 1.5 39.5 71 1 71 2556 121836
54	83398 1636 7555 195267 1.5 51 100 1 100 5050 338350
55	85034 1109 7556 164871 1.5 38.9 68 1 68 2346 107134
56	86143 1636 7557 195268 1.5 51 100 1 100 5050 338350
57	87779 907 7558 155559 1.5 35.6 56 1 56 1596 60116
58	88686 1636 7559 195269 1.5 51 100 1 100 5050 338350
59	90322 905 7560 136190 1.5 29.5 57 1 57 1653 63365
60	91227 1636 7561 195270 1.5 51 100 1 100 5050 338350
61	92863 769 7562 121885 1.5 25.5 49 1 49 1225 40425
62	93632 1636 7563 195271 1.5 51 100 1 100 5050 338350
63	95268 342 7564 64787 1.5 12.5 23 1 23 276 4324
64	95610 1636 7565 195272 1.5 51 100 1 100 5050 338350
65	97246 1078 7566 164863 1.5 38.9 65 1 65 2145 93665
66	98324 1636 7567 195273 1.5 51 100 1 100 5050 338350
67	99960 845 7568 139394 1.5 30.5 53 1 53 1431 51039
68	100805 1636 7569 195274 1.5 51 100 1 100 5050 338350
69	102441 761 7570 133459 1.5 28.7 47 1 47 1128 35720
70	103202 1636 7571 195275 1.5 51 100 1 100 5050 338350
71	104838 973 7572 142894 1.5 31.5 61 1 61 1891 77531
72	105811 1636 7573 195276 1.5 51 100 1 100 5050 338350
73	107447 867 7574 150054 1.5 33.8 54 1 54 1485 53955
74	108314 1636 7575 195277 1.5 51 100 1 100 5050 338350
75	109950 579 7576 109955 1.5 22.5 37 1 37 703 17575
76	110529 1636 7577 195278 1.5 51 100 1 100 5050 338350
77	112165 246 7578 49578 1.5 9.5 17 1 17 153 1785
78	112411 1636 7579 195279 1.5 51 100 1 100 5050 338350
79	114047 1044 7580 162259 1.5 37.9 63 1 63 2016 85344
80	115091 1636 7581 195280 1.5 51 100 1 100 5050 338350
81	116727 566 7582 97686 1.5 19.5 37 1 37 703 17575
82	117293 1636 7583 195281 1.5 51 100 1 100 5050 338350
83	118929 278 7584 54554 1.5 10.5 19 1 19 190 2470
84	119207 1636 7585 195282 1.5 51 100 1 100 5050 338350
85	120843 786 7586 137679 1.5 29.9 48 1 48 1176 38024
86	121629 1636 7587 195283 1.5 51 100 1 100 5050 338350
87	123265 633 7588 106125 1.5 21.5 41 1 41 861 23821
88	123898 1636 7589 195284 1.5 51 100 1 100 5050 338350
89	125534 522 7590 101701 1.5 20.5 34 1 34 595 13685
90	126056 1636 7591 195285 1.5 51 100 1 100 5050 338350
91	127692 374 7592 70032 1.5 13.5 25 1 25 325 5525
92	128066 1636 7593 195286 1.5 51 100 1 100 5050 338350
93	129702 278 7594 54564 1.5 10.5 19 1 19 190 2470
94	129980 1636 7595 195287 1.5 51 100 1 100 5050 338350
95	131616 651 7596 119575 1.5 24.9 41 1 41 861 23821
96	132267 1636 7597 195288 1.5 51 100 1 100 5050 338350
97	133903 735 7598 117907 1.5 24.5 47 1 47 1128 35720
98	134638 1636 7599 195289 1.5 51 100 1 100 5050 338350
99	136274 310 7600 59967 1.5 11.5 21 1 21 231 3311
100	136584 1803 7601 200548 1.5 60.8 100 1 100 5050 338350
101	138387 297 7602 66126 1.5 12.7 19 1 19 190 2470
102	138684 1817 7603 200510 1.5 58.7 100 1 100 5050 338350
103	140501 525 7604 89597 1.5 17.7 32 1 32 528 11440
104	141026 1812 7605 200457 1.5 58.3 100 1 100 5050 338350
105	142838 614 7606 101682 1.5 20.5 37 1 37 703 17575
106	143452 1810 7607 200410 1.5 58.1 100 1 100 5050 338350
107	145262 899 7608 149511 1.5 33.6 52 1 52 1378 48230
108	146161 1808 7609 200377 1.5 57.9 100 1 100 5050 338350
109	147969 1154 7610 166173 1.5 39.4 66 1 66 2211 98021
110	149123 1805 7611 200309 1.5 57.7 100 1 100 5050 338350
111	150928 535 7612 88875 1.5 17.5 33 1 33 561 12529
112	151463 1798 7613 200123 1.5 57.1 100 1 100 5050 338350
113	153261 950 7614 146785 1.5 32.7 55 1 55 1540 56980
114	154211 1796 7615 200019 1.5 56.9 100 1 100 5050 338350
115	156007 851 7616 136158 1.5 29.5 50 1 50 1275 42925
116	156858 1794 7617 199950 1.5 56.7 100 1 100 5050 338350
117	158652 331 7618 59984 1.5 11.5 21 1 21 231 3311
118	158983 1736 7619 195290 1.5 51 100 1 100 5050 338350
119	160719 858 7620 127010 1.5 26.9 51 1 51 1326 45526
120	161577 1788 7621 199624 1.5 56.1 100 1 100 5050 338350
121	163365 618 7622 111059 1.5 22.7 37 1 37 703 17575
122	163983 1784 7623 199397 1.5 55.7 100 1 100 5050 338350
123	165767 1002 7624 159079 1.5 36.8 58 1 58 1711 66729
124	166769 1784 7625 199398 1.5 55.7 100 1 100 5050 338350
125	168553 433 7626 74698 1.5 14.5 27 1 27 378 6930
126	168986 1780 7627 199148 1.5 55.3 100 1 100 5050 338350
127	170766 832 7628 136741 1.5 29.7 48 1 48 1176 38024
128	171598 1776 7629 198877 1.5 54.9 100 1 100 5050 338350
129	173374 1019 7630 155281 1.5 35.5 58 1 58 1711 66729
130	174393 1776 7631 198878 1.5 54.9 100 1 100 5050 338350
131	176169 1106 7632 149280 1.5 33.5 65 1 65 2145 93665
132	177275 1752 7633 197765 1.5 53.4 100 1 100 5050 338350
133	179027 746 7634 114215 1.5 23.5 45 1 45 1035 31395
134	179773 1758 7635 197597 1.5 53.1 100 1 100 5050 338350
135	181531 638 7636 101774 1.5 20.5 39 1 39 780 20540
136	182169 1736 7637 195291 1.5 51 100 1 100 5050 338350
137	183905 535 7638 88895 1.5 17.5 33 1 33 561 12529
138	184440 1736 7639 195292 1.5 51 100 1 100 5050 338350
139	186176 1103 7640 158830 1.5 36.7 64 1 64 2080 89440
140	187279 1736 7641 195293 1.5 51 100 1 100 5050 338350
141	189015 399 7642 70074 1.5 13.5 25 1 25 325 5525
142	189414 1736 7643 195294 1.5 51 100 1 100 5050 338350
143	191150 415 7644 72417 1.5 14 26 1 26 351 6201
144	191565 1736 7645 195295 1.5 51 100 1 100 5050 338350
145	193301 1106 7646 149288 1.5 33.5 65 1 65 2145 93665
146	194407 1736 7647 195296 1.5 51 100 1 100 5050 338350
147	196143 782 7648 117928 1.5 24.5 47 1 47 1128 35720
148	196925 1736 7649 195297 1.5 51 100 1 100 5050 338350
149	198661 1322 7650 166537 1.5 39.5 77 1 77 3003 155155
150	199983 1736 7651 195298 1.5 51 100 1 100 5050 338350
151	201719 917 7652 148859 1.5 33.4 54 1 54 1485 53955
152	202636 1736 7653 195299 1.5 51 100 1 100 5050 338350
153	204372 962 7654 136230 1.5 29.5 57 1 57 1653 63365
154	205334 1736 7655 195300 1.5 51 100 1 100 5050 338350
155	207070 1303 7656 164998 1.5 39 76 1 76 2926 149226
156	208373 1736 7657 195301 1.5 51 100 1 100 5050 338350
157	210109 535 7658 88913 1.5 17.5 33 1 33 561 12529
158	210644 1736 7659 195302 1.5 51 100 1 100 5050 338350