file 360738 1708193909                                          
version 3
run Tictoc1-0-20240217-15:18:26-25199
attr configname Tictoc1
attr datetime 20240217-15:18:26
attr datetimef 20240217-151826
attr experiment Tictoc1
attr inifile omnetpp.ini
attr iterationvars ""
attr iterationvarsd ""
attr iterationvarsf ""
attr measurement ""
attr network Tictoc1
attr processid 25199
attr repetition 0
attr replication #0
attr resultdir results
attr runnumber 0
attr seedset 0
config network Tictoc1

vector 0 Tictoc1.peer[0] HopCount ETV
vector 1 Tictoc1.peer[1] HopCount ETV
vector 2 Tictoc1.peer[2] HopCount ETV
vector 3 Tictoc1.peer[3] HopCount ETV
vector 4 Tictoc1.peer[4] HopCount ETV
vector 5 Tictoc1.peer[5] HopCount ETV
vector 6 Tictoc1.peer[6] HopCount ETV
vector 7 Tictoc1.peer[7] HopCount ETV
vector 8 Tictoc1.peer[8] HopCount ETV
vector 9 Tictoc1.peer[9] HopCount ETV
vector 10 Tictoc1.peer[10] HopCount ETV
vector 11 Tictoc1.peer[11] HopCount ETV
vector 12 Tictoc1.peer[12] HopCount ETV
vector 13 Tictoc1.peer[13] HopCount ETV
vector 14 Tictoc1.peer[14] HopCount ETV
vector 15 Tictoc1.peer[15] HopCount ETV
vector 16 Tictoc1.peer[16] HopCount ETV
vector 17 Tictoc1.peer[17] HopCount ETV
vector 18 Tictoc1.peer[18] HopCount ETV
vector 19 Tictoc1.peer[19] HopCount ETV
vector 20 Tictoc1.peer[20] HopCount ETV
vector 21 Tictoc1.peer[21] HopCount ETV
vector 22 Tictoc1.peer[22] HopCount ETV
vector 23 Tictoc1.peer[23] HopCount ETV
vector 24 Tictoc1.peer[24] HopCount ETV
vector 25 Tictoc1.peer[25] HopCount ETV
vector 26 Tictoc1.peer[26] HopCount ETV
vector 27 Tictoc1.peer[27] HopCount ETV
vector 28 Tictoc1.peer[28] HopCount ETV
vector 29 Tictoc1.peer[29] HopCount ETV
vector 30 Tictoc1.peer[30] HopCount ETV
vector 31 Tictoc1.peer[31] HopCount ETV
vector 32 Tictoc1.peer[32] HopCount ETV
vector 33 Tictoc1.peer[33] HopCount ETV
vector 34 Tictoc1.peer[34] HopCount ETV
vector 35 Tictoc1.peer[35] HopCount ETV
vector 36 Tictoc1.peer[36] HopCount ETV
vector 37 Tictoc1.peer[37] HopCount ETV
vector 38 Tictoc1.peer[38] HopCount ETV
vector 39 Tictoc1.peer[39] HopCount ETV
vector 40 Tictoc1.peer[40] HopCount ETV
vector 41 Tictoc1.peer[41] HopCount ETV
vector 42 Tictoc1.peer[42] HopCount ETV
vector 43 Tictoc1.peer[43] HopCount ETV
vector 44 Tictoc1.peer[44] HopCount ETV
vector 45 Tictoc1.peer[45] HopCount ETV
vector 46 Tictoc1.peer[46] HopCount ETV
vector 47 Tictoc1.peer[47] HopCount ETV
vector 48 Tictoc1.peer[48] HopCount ETV
vector 49 Tictoc1.peer[49] HopCount ETV
vector 50 Tictoc1.peer[50] HopCount ETV
vector 51 Tictoc1.peer[51] HopCount ETV
vector 52 Tictoc1.peer[52] HopCount ETV
vector 53 Tictoc1.peer[53] HopCount ETV
vector 54 Tictoc1.peer[54] HopCount ETV
vector 55 Tictoc1.peer[55] HopCount ETV
vector 56 Tictoc1.peer[56] HopCount ETV
vector 57 Tictoc1.peer[57] HopCount ETV
vector 58 Tictoc1.peer[58] HopCount ETV
vector 59 Tictoc1.peer[59] HopCount ETV
vector 60 Tictoc1.peer[60] HopCount ETV
vector 61 Tictoc1.peer[61] HopCount ETV
vector 62 Tictoc1.peer[62] HopCount ETV
vector 63 Tictoc1.peer[63] HopCount ETV
vector 64 Tictoc1.peer[64] HopCount ETV
vector 65 Tictoc1.peer[65] HopCount ETV
vector 66 Tictoc1.peer[66] HopCount ETV
vector 67 Tictoc1.peer[67] HopCount ETV
vector 68 Tictoc1.peer[68] HopCount ETV
vector 69 Tictoc1.peer[69] HopCount ETV
vector 70 Tictoc1.peer[70] HopCount ETV
vector 71 Tictoc1.peer[71] HopCount ETV
vector 72 Tictoc1.peer[72] HopCount ETV
vector 73 Tictoc1.peer[73] HopCount ETV
vector 74 Tictoc1.peer[74] HopCount ETV
vector 75 Tictoc1.peer[75] HopCount ETV
vector 76 Tictoc1.peer[76] HopCount ETV
vector 77 Tictoc1.peer[77] HopCount ETV
vector 78 Tictoc1.peer[78] HopCount ETV
vector 79 Tictoc1.peer[79] HopCount ETV
vector 80 Tictoc1.peer[80] HopCount ETV
vector 81 Tictoc1.peer[81] HopCount ETV
vector 82 Tictoc1.peer[82] HopCount ETV
vector 83 Tictoc1.peer[83] HopCount ETV
vector 84 Tictoc1.peer[84] HopCount ETV
vector 85 Tictoc1.peer[85] HopCount ETV
vector 86 Tictoc1.peer[86] HopCount ETV
vector 87 Tictoc1.peer[87] HopCount ETV
vector 88 Tictoc1.peer[88] HopCount ETV
vector 89 Tictoc1.peer[89] HopCount ETV
vector 90 Tictoc1.peer[90] HopCount ETV
vector 91 Tictoc1.peer[91] HopCount ETV
vector 92 Tictoc1.peer[92] HopCount ETV
vector 93 Tictoc1.peer[93] HopCount ETV
vector 94 Tictoc1.peer[94] HopCount ETV
vector 95 Tictoc1.peer[95] HopCount ETV
vector 96 Tictoc1.peer[96] HopCount ETV
vector 97 Tictoc1.peer[97] HopCount ETV
vector 98 Tictoc1.peer[98] HopCount ETV
vector 99 Tictoc1.peer[99] HopCount ETV
vector 100 Tictoc1.peer[100] HopCount ETV
vector 101 Tictoc1.peer[101] HopCount ETV
vector 102 Tictoc1.peer[102] HopCount ETV
vector 103 Tictoc1.peer[103] HopCount ETV
vector 104 Tictoc1.peer[104] HopCount ETV
vector 105 Tictoc1.peer[105] HopCount ETV
vector 106 Tictoc1.peer[106] HopCount ETV
vector 107 Tictoc1.peer[107] HopCount ETV
vector 108 Tictoc1.peer[108] HopCount ETV
vector 109 Tictoc1.peer[109] HopCount ETV
vector 110 Tictoc1.peer[110] HopCount ETV
vector 111 Tictoc1.peer[111] HopCount ETV
vector 112 Tictoc1.peer[112] HopCount ETV
vector 113 Tictoc1.peer[113] HopCount ETV
vector 114 Tictoc1.peer[114] HopCount ETV
vector 115 Tictoc1.peer[115] HopCount ETV
vector 116 Tictoc1.peer[116] HopCount ETV
vector 117 Tictoc1.peer[117] HopCount ETV
vector 118 Tictoc1.peer[118] HopCount ETV
vector 119 Tictoc1.peer[119] HopCount ETV
vector 120 Tictoc1.peer[120] HopCount ETV
vector 121 Tictoc1.peer[121] HopCount ETV
vector 122 Tictoc1.peer[122] HopCount ETV
vector 123 Tictoc1.peer[123] HopCount ETV
vector 124 Tictoc1.peer[124] HopCount ETV
vector 125 Tictoc1.peer[125] HopCount ETV
vector 126 Tictoc1.peer[126] HopCount ETV
vector 127 Tictoc1.peer[127] HopCount ETV
vector 128 Tictoc1.peer[128] HopCount ETV
vector 129 Tictoc1.peer[129] HopCount ETV
vector 130 Tictoc1.peer[130] HopCount ETV
vector 131 Tictoc1.peer[131] HopCount ETV
vector 132 Tictoc1.peer[132] HopCount ETV
vector 133 Tictoc1.peer[133] HopCount ETV
vector 134 Tictoc1.peer[134] HopCount ETV
vector 135 Tictoc1.peer[135] HopCount ETV
vector 136 Tictoc1.peer[136] HopCount ETV
vector 137 Tictoc1.peer[137] HopCount ETV
vector 138 Tictoc1.peer[138] HopCount ETV
vector 139 Tictoc1.peer[139] HopCount ETV
vector 140 Tictoc1.peer[140] HopCount ETV
vector 141 Tictoc1.peer[141] HopCount ETV
vector 142 Tictoc1.peer[142] HopCount ETV
vector 143 Tictoc1.peer[143] HopCount ETV
vector 144 Tictoc1.peer[144] HopCount ETV
vector 145 Tictoc1.peer[145] HopCount ETV
vector 146 Tictoc1.peer[146] HopCount ETV
vector 147 Tictoc1.peer[147] HopCount ETV
vector 148 Tictoc1.peer[148] HopCount ETV
vector 149 Tictoc1.peer[149] HopCount ETV
vector 150 Tictoc1.peer[150] HopCount ETV
vector 151 Tictoc1.peer[151] HopCount ETV
vector 152 Tictoc1.peer[152] HopCount ETV
vector 153 Tictoc1.peer[153] HopCount ETV
vector 154 Tictoc1.peer[154] HopCount ETV
vector 155 Tictoc1.peer[155] HopCount ETV
vector 156 Tictoc1.peer[156] HopCount ETV
vector 157 Tictoc1.peer[157] HopCount ETV
vector 158 Tictoc1.peer[158] HopCount ETV
vector 159 Tictoc1.peer[159] HopCount ETV
vector 160 Tictoc1.peer[160] HopCount ETV
vector 161 Tictoc1.peer[161] HopCount ETV
vector 162 Tictoc1.peer[162] HopCount ETV
vector 163 Tictoc1.peer[163] HopCount ETV
vector 164 Tictoc1.peer[164] HopCount ETV
vector 165 Tictoc1.peer[165] HopCount ETV
vector 166 Tictoc1.peer[166] HopCount ETV
vector 167 Tictoc1.peer[167] HopCount ETV
vector 168 Tictoc1.peer[168] HopCount ETV
vector 169 Tictoc1.peer[169] HopCount ETV
vector 170 Tictoc1.peer[170] HopCount ETV
vector 171 Tictoc1.peer[171] HopCount ETV
vector 172 Tictoc1.peer[172] HopCount ETV
vector 173 Tictoc1.peer[173] HopCount ETV
vector 174 Tictoc1.peer[174] HopCount ETV
vector 175 Tictoc1.peer[175] HopCount ETV
vector 176 Tictoc1.peer[176] HopCount ETV
vector 177 Tictoc1.peer[177] HopCount ETV
vector 178 Tictoc1.peer[178] HopCount ETV
vector 179 Tictoc1.peer[179] HopCount ETV
vector 180 Tictoc1.peer[180] HopCount ETV
vector 181 Tictoc1.peer[181] HopCount ETV
vector 182 Tictoc1.peer[182] HopCount ETV
vector 183 Tictoc1.peer[183] HopCount ETV
vector 184 Tictoc1.peer[184] HopCount ETV
vector 185 Tictoc1.peer[185] HopCount ETV
vector 186 Tictoc1.peer[186] HopCount ETV
vector 187 Tictoc1.peer[187] HopCount ETV
vector 188 Tictoc1.peer[188] HopCount ETV
vector 189 Tictoc1.peer[189] HopCount ETV
vector 190 Tictoc1.peer[190] HopCount ETV
vector 191 Tictoc1.peer[191] HopCount ETV
vector 192 Tictoc1.peer[192] HopCount ETV
vector 193 Tictoc1.peer[193] HopCount ETV
vector 194 Tictoc1.peer[194] HopCount ETV
vector 195 Tictoc1.peer[195] HopCount ETV
vector 196 Tictoc1.peer[196] HopCount ETV
vector 197 Tictoc1.peer[197] HopCount ETV
vector 198 Tictoc1.peer[198] HopCount ETV
vector 199 Tictoc1.peer[199] HopCount ETV
vector 200 Tictoc1.peer[200] HopCount ETV
vector 201 Tictoc1.peer[201] HopCount ETV
vector 202 Tictoc1.peer[202] HopCount ETV
vector 203 Tictoc1.peer[203] HopCount ETV
vector 204 Tictoc1.peer[204] HopCount ETV
vector 205 Tictoc1.peer[205] HopCount ETV
vector 206 Tictoc1.peer[206] HopCount ETV
vector 207 Tictoc1.peer[207] HopCount ETV
vector 208 Tictoc1.peer[208] HopCount ETV
vector 209 Tictoc1.peer[209] HopCount ETV
vector 210 Tictoc1.peer[210] HopCount ETV
vector 211 Tictoc1.peer[211] HopCount ETV
vector 212 Tictoc1.peer[212] HopCount ETV
vector 213 Tictoc1.peer[213] HopCount ETV
vector 214 Tictoc1.peer[214] HopCount ETV
vector 215 Tictoc1.peer[215] HopCount ETV
vector 216 Tictoc1.peer[216] HopCount ETV
vector 217 Tictoc1.peer[217] HopCount ETV
vector 218 Tictoc1.peer[218] HopCount ETV
vector 219 Tictoc1.peer[219] HopCount ETV
vector 220 Tictoc1.peer[220] HopCount ETV
vector 221 Tictoc1.peer[221] HopCount ETV
vector 222 Tictoc1.peer[222] HopCount ETV
vector 223 Tictoc1.peer[223] HopCount ETV
vector 224 Tictoc1.peer[224] HopCount ETV
vector 225 Tictoc1.peer[225] HopCount ETV
vector 226 Tictoc1.peer[226] HopCount ETV
vector 227 Tictoc1.peer[227] HopCount ETV
vector 228 Tictoc1.peer[228] HopCount ETV
vector 229 Tictoc1.peer[229] HopCount ETV
vector 230 Tictoc1.peer[230] HopCount ETV
vector 231 Tictoc1.peer[231] HopCount ETV
vector 232 Tictoc1.peer[232] HopCount ETV
vector 233 Tictoc1.peer[233] HopCount ETV
vector 234 Tictoc1.peer[234] HopCount ETV
vector 235 Tictoc1.peer[235] HopCount ETV
vector 236 Tictoc1.peer[236] HopCount ETV
vector 237 Tictoc1.peer[237] HopCount ETV
vector 238 Tictoc1.peer[238] HopCount ETV
vector 239 Tictoc1.peer[239] HopCount ETV
vector 240 Tictoc1.peer[240] HopCount ETV
vector 241 Tictoc1.peer[241] HopCount ETV
vector 242 Tictoc1.peer[242] HopCount ETV
vector 243 Tictoc1.peer[243] HopCount ETV
vector 244 Tictoc1.peer[244] HopCount ETV
vector 245 Tictoc1.peer[245] HopCount ETV
vector 246 Tictoc1.peer[246] HopCount ETV
vector 247 Tictoc1.peer[247] HopCount ETV
vector 248 Tictoc1.peer[248] HopCount ETV
vector 249 Tictoc1.peer[249] HopCount ETV
vector 250 Tictoc1.peer[250] HopCount ETV
vector 251 Tictoc1.peer[251] HopCount ETV
vector 252 Tictoc1.peer[252] HopCount ETV
vector 253 Tictoc1.peer[253] HopCount ETV
vector 254 Tictoc1.peer[254] HopCount ETV
vector 255 Tictoc1.peer[255] HopCount ETV
vector 256 Tictoc1.peer[256] HopCount ETV
vector 257 Tictoc1.peer[257] HopCount ETV
vector 258 Tictoc1.peer[258] HopCount ETV
vector 259 Tictoc1.peer[259] HopCount ETV
vector 260 Tictoc1.peer[260] HopCount ETV
vector 261 Tictoc1.peer[261] HopCount ETV
vector 262 Tictoc1.peer[262] HopCount ETV
vector 263 Tictoc1.peer[263] HopCount ETV
vector 264 Tictoc1.peer[264] HopCount ETV
vector 265 Tictoc1.peer[265] HopCount ETV
vector 266 Tictoc1.peer[266] HopCount ETV
vector 267 Tictoc1.peer[267] HopCount ETV
vector 268 Tictoc1.peer[268] HopCount ETV
vector 269 Tictoc1.peer[269] HopCount ETV
vector 270 Tictoc1.peer[270] HopCount ETV
vector 271 Tictoc1.peer[271] HopCount ETV
vector 272 Tictoc1.peer[272] HopCount ETV
vector 273 Tictoc1.peer[273] HopCount ETV
vector 274 Tictoc1.peer[274] HopCount ETV
vector 275 Tictoc1.peer[275] HopCount ETV
vector 276 Tictoc1.peer[276] HopCount ETV
vector 277 Tictoc1.peer[277] HopCount ETV
vector 278 Tictoc1.peer[278] HopCount ETV
vector 279 Tictoc1.peer[279] HopCount ETV
vector 280 Tictoc1.peer[280] HopCount ETV
vector 281 Tictoc1.peer[281] HopCount ETV
vector 282 Tictoc1.peer[282] HopCount ETV
vector 283 Tictoc1.peer[283] HopCount ETV
vector 284 Tictoc1.peer[284] HopCount ETV
vector 285 Tictoc1.peer[285] HopCount ETV
vector 286 Tictoc1.peer[286] HopCount ETV
vector 287 Tictoc1.peer[287] HopCount ETV
vector 288 Tictoc1.peer[288] HopCount ETV
vector 289 Tictoc1.peer[289] HopCount ETV
vector 290 Tictoc1.peer[290] HopCount ETV
vector 291 Tictoc1.peer[291] HopCount ETV
vector 292 Tictoc1.peer[292] HopCount ETV
vector 293 Tictoc1.peer[293] HopCount ETV
vector 294 Tictoc1.peer[294] HopCount ETV
vector 295 Tictoc1.peer[295] HopCount ETV
vector 296 Tictoc1.peer[296] HopCount ETV
vector 297 Tictoc1.peer[297] HopCount ETV
vector 298 Tictoc1.peer[298] HopCount ETV
vector 299 Tictoc1.peer[299] HopCount ETV
vector 300 Tictoc1.peer[300] HopCount ETV
vector 301 Tictoc1.peer[301] HopCount ETV
vector 302 Tictoc1.peer[302] HopCount ETV
vector 303 Tictoc1.peer[303] HopCount ETV
vector 304 Tictoc1.peer[304] HopCount ETV
vector 305 Tictoc1.peer[305] HopCount ETV
vector 306 Tictoc1.peer[306] HopCount ETV
vector 307 Tictoc1.peer[307] HopCount ETV
vector 308 Tictoc1.peer[308] HopCount ETV
vector 309 Tictoc1.peer[309] HopCount ETV
vector 310 Tictoc1.peer[310] HopCount ETV
vector 311 Tictoc1.peer[311] HopCount ETV
vector 312 Tictoc1.peer[312] HopCount ETV
vector 313 Tictoc1.peer[313] HopCount ETV
vector 314 Tictoc1.peer[314] HopCount ETV
vector 315 Tictoc1.peer[315] HopCount ETV
vector 316 Tictoc1.peer[316] HopCount ETV
vector 317 Tictoc1.peer[317] HopCount ETV
vector 318 Tictoc1.peer[318] HopCount ETV
vector 319 Tictoc1.peer[319] HopCount ETV
vector 320 Tictoc1.peer[320] HopCount ETV
vector 321 Tictoc1.peer[321] HopCount ETV
vector 322 Tictoc1.peer[322] HopCount ETV
vector 323 Tictoc1.peer[323] HopCount ETV
vector 324 Tictoc1.peer[324] HopCount ETV
vector 325 Tictoc1.peer[325] HopCount ETV
vector 326 Tictoc1.peer[326] HopCount ETV
vector 327 Tictoc1.peer[327] HopCount ETV
vector 328 Tictoc1.peer[328] HopCount ETV
vector 329 Tictoc1.peer[329] HopCount ETV
vector 330 Tictoc1.peer[330] HopCount ETV
vector 331 Tictoc1.peer[331] HopCount ETV
vector 332 Tictoc1.peer[332] HopCount ETV
vector 333 Tictoc1.peer[333] HopCount ETV
vector 334 Tictoc1.peer[334] HopCount ETV
vector 335 Tictoc1.peer[335] HopCount ETV
vector 336 Tictoc1.peer[336] HopCount ETV
vector 337 Tictoc1.peer[337] HopCount ETV
vector 338 Tictoc1.peer[338] HopCount ETV
vector 339 Tictoc1.peer[339] HopCount ETV
vector 340 Tictoc1.peer[340] HopCount ETV
vector 341 Tictoc1.peer[341] HopCount ETV
vector 342 Tictoc1.peer[342] HopCount ETV
vector 343 Tictoc1.peer[343] HopCount ETV
vector 344 Tictoc1.peer[344] HopCount ETV
vector 345 Tictoc1.peer[345] HopCount ETV
vector 346 Tictoc1.peer[346] HopCount ETV
vector 347 Tictoc1.peer[347] HopCount ETV
vector 348 Tictoc1.peer[348] HopCount ETV
vector 349 Tictoc1.peer[349] HopCount ETV
vector 350 Tictoc1.peer[350] HopCount ETV
vector 351 Tictoc1.peer[351] HopCount ETV
vector 352 Tictoc1.peer[352] HopCount ETV
vector 353 Tictoc1.peer[353] HopCount ETV
vector 354 Tictoc1.peer[354] HopCount ETV
vector 355 Tictoc1.peer[355] HopCount ETV
vector 356 Tictoc1.peer[356] HopCount ETV
vector 357 Tictoc1.peer[357] HopCount ETV
vector 358 Tictoc1.peer[358] HopCount ETV
vector 359 Tictoc1.peer[359] HopCount ETV
vector 360 Tictoc1.peer[360] HopCount ETV
vector 361 Tictoc1.peer[361] HopCount ETV
vector 362 Tictoc1.peer[362] HopCount ETV
vector 363 Tictoc1.peer[363] HopCount ETV
vector 364 Tictoc1.peer[364] HopCount ETV
vector 365 Tictoc1.peer[365] HopCount ETV
vector 366 Tictoc1.peer[366] HopCount ETV
vector 367 Tictoc1.peer[367] HopCount ETV
vector 368 Tictoc1.peer[368] HopCount ETV
vector 369 Tictoc1.peer[369] HopCount ETV
vector 370 Tictoc1.peer[370] HopCount ETV
vector 371 Tictoc1.peer[371] HopCount ETV
vector 372 Tictoc1.peer[372] HopCount ETV
vector 373 Tictoc1.peer[373] HopCount ETV
vector 374 Tictoc1.peer[374] HopCount ETV
vector 375 Tictoc1.peer[375] HopCount ETV
vector 376 Tictoc1.peer[376] HopCount ETV
vector 377 Tictoc1.peer[377] HopCount ETV
vector 378 Tictoc1.peer[378] HopCount ETV
vector 379 Tictoc1.peer[379] HopCount ETV
vector 380 Tictoc1.peer[380] HopCount ETV
vector 381 Tictoc1.peer[381] HopCount ETV
vector 382 Tictoc1.peer[382] HopCount ETV
vector 383 Tictoc1.peer[383] HopCount ETV
vector 384 Tictoc1.peer[384] HopCount ETV
vector 385 Tictoc1.peer[385] HopCount ETV
vector 386 Tictoc1.peer[386] HopCount ETV
vector 387 Tictoc1.peer[387] HopCount ETV
vector 388 Tictoc1.peer[388] HopCount ETV
vector 389 Tictoc1.peer[389] HopCount ETV
vector 390 Tictoc1.peer[390] HopCount ETV
vector 391 Tictoc1.peer[391] HopCount ETV
vector 392 Tictoc1.peer[392] HopCount ETV
vector 393 Tictoc1.peer[393] HopCount ETV
vector 394 Tictoc1.peer[394] HopCount ETV
vector 395 Tictoc1.peer[395] HopCount ETV
vector 396 Tictoc1.peer[396] HopCount ETV
vector 397 Tictoc1.peer[397] HopCount ETV
vector 398 Tictoc1.peer[398] HopCount ETV
vector 399 Tictoc1.peer[399] HopCount ETV
vector 400 Tictoc1.peer[400] HopCount ETV
vector 401 Tictoc1.peer[401] HopCount ETV
vector 402 Tictoc1.peer[402] HopCount ETV
vector 403 Tictoc1.peer[403] HopCount ETV
vector 404 Tictoc1.peer[404] HopCount ETV
vector 405 Tictoc1.peer[405] HopCount ETV
vector 406 Tictoc1.peer[406] HopCount ETV
vector 407 Tictoc1.peer[407] HopCount ETV
vector 408 Tictoc1.peer[408] HopCount ETV
vector 409 Tictoc1.peer[409] HopCount ETV
vector 410 Tictoc1.peer[410] HopCount ETV
vector 411 Tictoc1.peer[411] HopCount ETV
vector 412 Tictoc1.peer[412] HopCount ETV
vector 413 Tictoc1.peer[413] HopCount ETV
vector 414 Tictoc1.peer[414] HopCount ETV
vector 415 Tictoc1.peer[415] HopCount ETV
vector 416 Tictoc1.peer[416] HopCount ETV
vector 417 Tictoc1.peer[417] HopCount ETV
vector 418 Tictoc1.peer[418] HopCount ETV
vector 419 Tictoc1.peer[419] HopCount ETV
vector 420 Tictoc1.peer[420] HopCount ETV
vector 421 Tictoc1.peer[421] HopCount ETV
vector 422 Tictoc1.peer[422] HopCount ETV
vector 423 Tictoc1.peer[423] HopCount ETV
vector 424 Tictoc1.peer[424] HopCount ETV
vector 425 Tictoc1.peer[425] HopCount ETV
vector 426 Tictoc1.peer[426] HopCount ETV
vector 427 Tictoc1.peer[427] HopCount ETV
vector 428 Tictoc1.peer[428] HopCount ETV
vector 429 Tictoc1.peer[429] HopCount ETV
vector 430 Tictoc1.peer[430] HopCount ETV
vector 431 Tictoc1.peer[431] HopCount ETV
vector 432 Tictoc1.peer[432] HopCount ETV
vector 433 Tictoc1.peer[433] HopCount ETV
vector 434 Tictoc1.peer[434] HopCount ETV
vector 435 Tictoc1.peer[435] HopCount ETV
vector 436 Tictoc1.peer[436] HopCount ETV
vector 437 Tictoc1.peer[437] HopCount ETV
vector 438 Tictoc1.peer[438] HopCount ETV
vector 439 Tictoc1.peer[439] HopCount ETV
vector 440 Tictoc1.peer[440] HopCount ETV
vector 441 Tictoc1.peer[441] HopCount ETV
vector 442 Tictoc1.peer[442] HopCount ETV
vector 443 Tictoc1.peer[443] HopCount ETV
vector 444 Tictoc1.peer[444] HopCount ETV
vector 445 Tictoc1.peer[445] HopCount ETV
vector 446 Tictoc1.peer[446] HopCount ETV
vector 447 Tictoc1.peer[447] HopCount ETV
vector 448 Tictoc1.peer[448] HopCount ETV
vector 449 Tictoc1.peer[449] HopCount ETV
vector 450 Tictoc1.peer[450] HopCount ETV
vector 451 Tictoc1.peer[451] HopCount ETV
vector 452 Tictoc1.peer[452] HopCount ETV
vector 453 Tictoc1.peer[453] HopCount ETV
vector 454 Tictoc1.peer[454] HopCount ETV
vector 455 Tictoc1.peer[455] HopCount ETV
vector 456 Tictoc1.peer[456] HopCount ETV
vector 457 Tictoc1.peer[457] HopCount ETV
vector 458 Tictoc1.peer[458] HopCount ETV
vector 459 Tictoc1.peer[459] HopCount ETV
vector 460 Tictoc1.peer[460] HopCount ETV
vector 461 Tictoc1.peer[461] HopCount ETV
vector 462 Tictoc1.peer[462] HopCount ETV
vector 463 Tictoc1.peer[463] HopCount ETV
vector 464 Tictoc1.peer[464] HopCount ETV
vector 465 Tictoc1.peer[465] HopCount ETV
vector 466 Tictoc1.peer[466] HopCount ETV
vector 467 Tictoc1.peer[467] HopCount ETV
vector 468 Tictoc1.peer[468] HopCount ETV
vector 469 Tictoc1.peer[469] HopCount ETV
vector 470 Tictoc1.peer[470] HopCount ETV
vector 471 Tictoc1.peer[471] HopCount ETV
vector 472 Tictoc1.peer[472] HopCount ETV
vector 473 Tictoc1.peer[473] HopCount ETV
vector 474 Tictoc1.peer[474] HopCount ETV
vector 475 Tictoc1.peer[475] HopCount ETV
vector 476 Tictoc1.peer[476] HopCount ETV
vector 477 Tictoc1.peer[477] HopCount ETV
vector 478 Tictoc1.peer[478] HopCount ETV
vector 479 Tictoc1.peer[479] HopCount ETV
vector 480 Tictoc1.peer[480] HopCount ETV
vector 481 Tictoc1.peer[481] HopCount ETV
vector 482 Tictoc1.peer[482] HopCount ETV
vector 483 Tictoc1.peer[483] HopCount ETV
vector 484 Tictoc1.peer[484] HopCount ETV
vector 485 Tictoc1.peer[485] HopCount ETV
vector 486 Tictoc1.peer[486] HopCount ETV
vector 487 Tictoc1.peer[487] HopCount ETV
vector 488 Tictoc1.peer[488] HopCount ETV
vector 489 Tictoc1.peer[489] HopCount ETV
vector 490 Tictoc1.peer[490] HopCount ETV
vector 491 Tictoc1.peer[491] HopCount ETV
vector 492 Tictoc1.peer[492] HopCount ETV
vector 493 Tictoc1.peer[493] HopCount ETV
vector 494 Tictoc1.peer[494] HopCount ETV
vector 495 Tictoc1.peer[495] HopCount ETV
vector 496 Tictoc1.peer[496] HopCount ETV
vector 497 Tictoc1.peer[497] HopCount ETV
vector 498 Tictoc1.peer[498] HopCount ETV
vector 499 Tictoc1.peer[499] HopCount ETV
0	21211 1613 7501 124595 1.5 58.7 100 1 100 5050 338350
1	22824 399 7502 85408 1.5 17.6 28 1 28 406 7714
2	23223 289 7503 59627 1.5 11.5 21 1 21 231 3311
3	23512 702 7504 111273 1.5 28.9 46 1 46 1081 33511
4	24214 498 7505 102946 1.5 23.8 34 1 34 595 13685
5	24712 229 7506 49506 1.5 9.5 17 1 17 153 1785
6	24941 229 7507 49507 1.5 9.5 17 1 17 153 1785
7	25170 229 7508 49508 1.5 9.5 17 1 17 153 1785
8	25399 413 7509 79347 1.5 15.9 29 1 29 435 8555
9	25812 259 7510 54410 1.5 10.5 19 1 19 190 2470
10	26071 1708 7511 124555 1.5 58.3 100 1 100 5050 338350
11	27779 718 7512 111974 1.5 29.6 45 1 45 1035 31395
12	28497 506 7513 86605 1.5 17.9 33 1 33 561 12529
13	29003 521 7514 87947 1.5 18.3 34 1 34 595 13685
14	29524 532 7515 106756 1.5 25.7 34 1 34 595 13685
15	30056 766 7516 111191 1.5 28.8 48 1 48 1176 38024
16	30822 572 7517 99648 1.5 22.3 37 1 37 703 17575
17	31394 802 7518 110158 1.5 27.9 50 1 50 1275 42925
18	32196 438 7519 77591 1.5 15.5 29 1 29 435 8555
19	32634 406 7520 73280 1.5 14.5 27 1 27 378 6930
20	33040 1701 7521 124464 1.5 57.7 100 1 100 5050 338350
21	34741 325 7522 61972 1.5 12 22 1 22 253 3795
22	35066 656 7523 100930 1.5 22.9 42 1 42 903 25585
23	35722 746 7524 107179 1.5 25.9 47 1 47 1128 35720
24	36468 613 7525 103311 1.5 23.9 39 1 39 780 20540
25	37081 724 7526 109185 1.5 27.2 46 1 46 1081 33511
26	37805 603 7527 101491 1.5 23.1 39 1 39 780 20540
27	38408 389 7528 71253 1.5 14 26 1 26 351 6201
28	38797 342 7529 64280 1.5 12.5 23 1 23 276 4324
29	39139 566 7530 91746 1.5 19.5 37 1 37 703 17575
30	39705 1694 7531 124368 1.5 57.1 100 1 100 5050 338350
31	41399 406 7532 73288 1.5 14.5 27 1 27 378 6930
32	41805 598 7533 94620 1.5 20.5 39 1 39 780 20540
33	42403 613 7534 103312 1.5 23.9 39 1 39 780 20540
34	43016 848 7535 110282 1.5 28 54 1 54 1485 53955
35	43864 438 7536 77601 1.5 15.5 29 1 29 435 8555
36	44302 374 7537 69125 1.5 13.5 25 1 25 325 5525
37	44676 789 7538 111373 1.5 29 50 1 50 1275 42925
38	45465 832 7539 109642 1.5 27.5 53 1 53 1431 51039
39	46297 581 7540 93227 1.5 20 38 1 38 741 19019
40	46878 1689 7541 124261 1.5 56.7 100 1 100 5050 338350
41	48567 549 7542 89937 1.5 19 36 1 36 666 16206
42	49116 750 7543 109636 1.5 27.5 48 1 48 1176 38024
43	49866 696 7544 102422 1.5 23.5 45 1 45 1035 31395
44	50562 667 7545 106728 1.5 25.7 42 1 42 903 25585
45	51229 566 7546 91756 1.5 19.5 37 1 37 703 17575
46	51795 374 7547 69135 1.5 13.5 25 1 25 325 5525
47	52169 310 7548 59665 1.5 11.5 21 1 21 231 3311
48	52479 325 7549 61999 1.5 12 22 1 22 253 3795
49	52804 673 7550 106049 1.5 25.3 43 1 43 946 27434
50	53477 1631 7551 122205 1.5 51 100 1 100 5050 338350
51	55108 662 7552 99965 1.5 22.5 43 1 43 946 27434
52	55770 804 7553 111736 1.5 29.3 51 1 51 1326 45526
53	56574 246 7554 49554 1.5 9.5 17 1 17 153 1785
54	56820 836 7555 110173 1.5 27.9 53 1 53 1431 51039
55	57656 566 7556 91761 1.5 19.5 37 1 37 703 17575
56	58222 246 7557 49557 1.5 9.5 17 1 17 153 1785
57	58468 470 7558 81323 1.5 16.5 31 1 31 496 10416
58	58938 278 7559 54457 1.5 10.5 19 1 19 190 2470
59	59216 470 7560 81324 1.5 16.5 31 1 31 496 10416
60	59686 1677 7561 123865 1.5 55.5 100 1 100 5050 338350
61	61363 246 7562 49562 1.5 9.5 17 1 17 153 1785
62	61609 534 7563 88395 1.5 18.5 35 1 35 630 14910
63	62143 438 7564 77620 1.5 15.5 29 1 29 435 8555
64	62581 429 7565 86598 1.5 17.9 28 1 28 406 7714
65	63010 374 7566 69147 1.5 13.5 25 1 25 325 5525
66	63384 563 7567 104594 1.5 24.6 36 1 36 666 16206
67	63947 512 7568 95277 1.5 20.7 33 1 33 561 12529
68	64459 342 7569 64311 1.5 12.5 23 1 23 276 4324
69	64801 815 7570 112280 1.5 29.9 51 1 51 1326 45526
70	65616 1631 7571 122206 1.5 51 100 1 100 5050 338350
71	67247 246 7572 49572 1.5 9.5 17 1 17 153 1785
72	67493 630 7573 97544 1.5 21.5 41 1 41 861 23821
73	68123 730 7574 104470 1.5 24.5 47 1 47 1128 35720
74	68853 325 7575 62019 1.5 12 22 1 22 253 3795
75	69178 630 7576 97546 1.5 21.5 41 1 41 861 23821
76	69808 509 7577 101085 1.5 23 33 1 33 561 12529
77	70317 595 7578 106205 1.5 25.4 38 1 38 741 19019
78	70912 342 7579 64318 1.5 12.5 23 1 23 276 4324
79	71254 246 7580 49580 1.5 9.5 17 1 17 153 1785
80	71500 1631 7581 122207 1.5 51 100 1 100 5050 338350
81	73131 246 7582 49582 1.5 9.5 17 1 17 153 1785
82	73377 696 7583 102429 1.5 23.5 45 1 45 1035 31395
83	74073 470 7584 81334 1.5 16.5 31 1 31 496 10416
84	74543 438 7585 77629 1.5 15.5 29 1 29 435 8555
85	74981 406 7586 73320 1.5 14.5 27 1 27 378 6930
86	75387 246 7587 49587 1.5 9.5 17 1 17 153 1785
87	75633 566 7588 91770 1.5 19.5 37 1 37 703 17575
88	76199 746 7589 105392 1.5 25 48 1 48 1176 38024
89	76945 278 7590 54483 1.5 10.5 19 1 19 190 2470
90	77223 1631 7591 122208 1.5 51 100 1 100 5050 338350
91	78854 406 7592 73324 1.5 14.5 27 1 27 378 6930
92	79260 374 7593 69163 1.5 13.5 25 1 25 325 5525
93	79634 689 7594 111367 1.5 29 43 1 43 946 27434
94	80323 470 7595 81338 1.5 16.5 31 1 31 496 10416
95	80793 557 7596 98606 1.5 21.9 36 1 36 666 16206
96	81350 342 7597 64331 1.5 12.5 23 1 23 276 4324
97	81692 662 7598 99975 1.5 22.5 43 1 43 946 27434
98	82354 502 7599 85143 1.5 17.5 33 1 33 561 12529
99	82856 470 7600 81341 1.5 16.5 31 1 31 496 10416
100	83326 1813 7601 125199 1.5 69.7 100 1 100 5050 338350
101	85139 527 7602 86587 1.5 17.9 32 1 32 528 11440
102	85666 509 7603 91722 1.5 19.5 31 1 31 496 10416
103	86175 365 7604 64337 1.5 12.5 23 1 23 276 4324
104	86540 767 7605 110789 1.5 28.4 45 1 45 1035 31395
105	87307 387 7606 78254 1.5 15.7 24 1 24 300 4900
106	87694 697 7607 110279 1.5 28 41 1 41 861 23821
107	88391 647 7608 110706 1.5 28.3 38 1 38 741 19019
108	89038 543 7609 94829 1.5 20.6 33 1 33 561 12529
109	89581 546 7610 101090 1.5 23 33 1 33 561 12529
110	90127 1813 7611 125196 1.5 69.5 100 1 100 5050 338350
111	91940 710 7612 103303 1.5 23.9 42 1 42 903 25585
112	92650 543 7613 87936 1.5 18.3 33 1 33 561 12529
113	93193 297 7614 54504 1.5 10.5 19 1 19 190 2470
114	93490 783 7615 107431 1.5 26.1 46 1 46 1081 33511
115	94273 707 7616 102727 1.5 23.7 42 1 42 903 25585
116	94980 613 7617 94587 1.5 20.5 37 1 37 703 17575
117	95593 686 7618 100923 1.5 22.9 41 1 41 861 23821
118	96279 777 7619 110278 1.5 28 46 1 46 1081 33511
119	97056 613 7620 107197 1.5 25.9 37 1 37 703 17575
120	97669 1806 7621 125148 1.5 68.1 100 1 100 5050 338350
121	99475 671 7622 108544 1.5 26.8 40 1 40 820 22140
122	100146 399 7623 69177 1.5 13.5 25 1 25 325 5525
123	100545 593 7624 92222 1.5 19.7 36 1 36 666 16206
124	101138 331 7625 59725 1.5 11.5 21 1 21 231 3311
125	101469 539 7626 86608 1.5 17.9 33 1 33 561 12529
126	102008 399 7627 69180 1.5 13.5 25 1 25 325 5525
127	102407 744 7628 109835 1.5 27.7 44 1 44 990 29370
128	103151 711 7629 107175 1.5 25.9 42 1 42 903 25585
129	103862 263 7630 49630 1.5 9.5 17 1 17 153 1785
130	104125 1803 7631 125131 1.5 67.7 100 1 100 5050 338350
131	105928 723 7632 111186 1.5 28.8 43 1 43 946 27434
132	106651 625 7633 94600 1.5 20.5 38 1 38 741 19019
133	107276 755 7634 111110 1.5 28.7 45 1 45 1035 31395
134	108031 433 7635 73342 1.5 14.5 27 1 27 378 6930
135	108464 331 7636 59735 1.5 11.5 21 1 21 231 3311
136	108795 690 7637 105700 1.5 25.1 41 1 41 861 23821
137	109485 607 7638 93065 1.5 19.9 37 1 37 703 17575
138	110092 867 7639 110388 1.5 28.1 51 1 51 1326 45526
139	110959 789 7640 109953 1.5 27.8 47 1 47 1128 35720
140	111748 1799 7641 124439 1.5 57.5 100 1 100 5050 338350
141	113547 399 7642 69192 1.5 13.5 25 1 25 325 5525
142	113946 791 7643 106734 1.5 25.7 47 1 47 1128 35720
143	114737 734 7644 103322 1.5 23.9 44 1 44 990 29370
144	115471 807 7645 107444 1.5 26.1 48 1 48 1176 38024
145	116278 467 7646 77651 1.5 15.5 29 1 29 435 8555
146	116745 577 7647 102586 1.5 23.6 35 1 35 630 14910
147	117322 770 7648 110155 1.5 27.9 45 1 45 1035 31395
148	118092 579 7649 97924 1.5 21.7 35 1 35 630 14910
149	118671 788 7650 106462 1.5 25.5 47 1 47 1128 35720
150	119459 1796 7651 124395 1.5 57.3 100 1 100 5050 338350
151	121255 822 7652 110935 1.5 28.6 49 1 49 1225 40425
152	122077 710 7653 100943 1.5 22.9 43 1 43 946 27434
153	122787 567 7654 97915 1.5 21.7 34 1 34 595 13685
154	123354 805 7655 107187 1.5 25.9 48 1 48 1176 38024
155	124159 399 7656 69203 1.5 13.5 25 1 25 325 5525
156	124558 623 7657 102388 1.5 23.5 37 1 37 703 17575
157	125181 759 7658 111647 1.5 29.2 45 1 45 1035 31395
158	125940 421 7659 82242 1.5 16.7 26 1 26 351 6201
159	126361 535 7660 92254 1.5 19.7 33 1 33 561 12529
160	126896 1792 7661 124302 1.5 56.9 100 1 100 5050 338350
161	128688 297 7662 65545 1.5 12.7 19 1 19 190 2470
162	128985 697 7663 104926 1.5 24.7 42 1 42 903 25585
163	129682 609 7664 99649 1.5 22.3 37 1 37 703 17575
164	130291 297 7665 54551 1.5 10.5 19 1 19 190 2470
165	130588 541 7666 94251 1.5 20.3 33 1 33 561 12529
166	131129 708 7667 100563 1.5 22.7 43 1 43 946 27434