version 3
run Tictoc1-0-20240214-21:55:13-10252
attr configname Tictoc1
attr datetime 20240214-21:55:13
attr datetimef 20240214-215513
attr experiment Tictoc1
attr inifile omnetpp.ini
attr iterationvars ""
attr iterationvarsd ""
attr iterationvarsf ""
attr measurement ""
attr network Tictoc1
attr processid 10252
attr repetition 0
attr replication #0
attr resultdir results
attr runnumber 0
attr seedset 0
config network Tictoc1

vector 0 Tictoc1.peer[0] HopCount ETV
vector 1 Tictoc1.peer[1] HopCount ETV
vector 2 Tictoc1.peer[2] HopCount ETV
vector 3 Tictoc1.peer[3] HopCount ETV
vector 4 Tictoc1.peer[4] HopCount ETV
vector 5 Tictoc1.peer[5] HopCount ETV
vector 6 Tictoc1.peer[6] HopCount ETV
vector 7 Tictoc1.peer[7] HopCount ETV
vector 8 Tictoc1.peer[8] HopCount ETV
vector 9 Tictoc1.peer[9] HopCount ETV
vector 10 Tictoc1.peer[10] HopCount ETV
vector 11 Tictoc1.peer[11] HopCount ETV
vector 12 Tictoc1.peer[12] HopCount ETV
vector 13 Tictoc1.peer[13] HopCount ETV
vector 14 Tictoc1.peer[14] HopCount ETV
vector 15 Tictoc1.peer[15] HopCount ETV
vector 16 Tictoc1.peer[16] HopCount ETV
vector 17 Tictoc1.peer[17] HopCount ETV
vector 18 Tictoc1.peer[18] HopCount ETV
vector 19 Tictoc1.peer[19] HopCount ETV
vector 20 Tictoc1.peer[20] HopCount ETV
vector 21 Tictoc1.peer[21] HopCount ETV
vector 22 Tictoc1.peer[22] HopCount ETV
vector 23 Tictoc1.peer[23] HopCount ETV
vector 24 Tictoc1.peer[24] HopCount ETV
vector 25 Tictoc1.peer[25] HopCount ETV
vector 26 Tictoc1.peer[26] HopCount ETV
vector 27 Tictoc1.peer[27] HopCount ETV
vector 28 Tictoc1.peer[28] HopCount ETV
vector 29 Tictoc1.peer[29] HopCount ETV
vector 30 Tictoc1.peer[30] HopCount ETV
vector 31 Tictoc1.peer[31] HopCount ETV
vector 32 Tictoc1.peer[32] HopCount ETV
vector 33 Tictoc1.peer[33] HopCount ETV
vector 34 Tictoc1.peer[34] HopCount ETV
vector 35 Tictoc1.peer[35] HopCount ETV
vector 36 Tictoc1.peer[36] HopCount ETV
vector 37 Tictoc1.peer[37] HopCount ETV
vector 38 Tictoc1.peer[38] HopCount ETV
vector 39 Tictoc1.peer[39] HopCount ETV
vector 40 Tictoc1.peer[40] HopCount ETV
vector 41 Tictoc1.peer[41] HopCount ETV
vector 42 Tictoc1.peer[42] HopCount ETV
vector 43 Tictoc1.peer[43] HopCount ETV
vector 44 Tictoc1.peer[44] HopCount ETV
vector 45 Tictoc1.peer[45] HopCount ETV
vector 46 Tictoc1.peer[46] HopCount ETV
vector 47 Tictoc1.peer[47] HopCount ETV
vector 48 Tictoc1.peer[48] HopCount ETV
vector 49 Tictoc1.peer[49] HopCount ETV
vector 50 Tictoc1.peer[50] HopCount ETV
vector 51 Tictoc1.peer[51] HopCount ETV
vector 52 Tictoc1.peer[52] HopCount ETV
vector 53 Tictoc1.peer[53] HopCount ETV
vector 54 Tictoc1.peer[54] HopCount ETV
vector 55 Tictoc1.peer[55] HopCount ETV
vector 56 Tictoc1.peer[56] HopCount ETV
vector 57 Tictoc1.peer[57] HopCount ETV
vector 58 Tictoc1.peer[58] HopCount ETV
vector 59 Tictoc1.peer[59] HopCount ETV
vector 60 Tictoc1.peer[60] HopCount ETV
vector 61 Tictoc1.peer[61] HopCount ETV
vector 62 Tictoc1.peer[62] HopCount ETV
vector 63 Tictoc1.peer[63] HopCount ETV
vector 64 Tictoc1.peer[64] HopCount ETV
vector 65 Tictoc1.peer[65] HopCount ETV
vector 66 Tictoc1.peer[66] HopCount ETV
vector 67 Tictoc1.peer[67] HopCount ETV
vector 68 Tictoc1.peer[68] HopCount ETV
vector 69 Tictoc1.peer[69] HopCount ETV
vector 70 Tictoc1.peer[70] HopCount ETV
vector 71 Tictoc1.peer[71] HopCount ETV
vector 72 Tictoc1.peer[72] HopCount ETV
vector 73 Tictoc1.peer[73] HopCount ETV
vector 74 Tictoc1.peer[74] HopCount ETV
vector 75 Tictoc1.peer[75] HopCount ETV
vector 76 Tictoc1.peer[76] HopCount ETV
vector 77 Tictoc1.peer[77] HopCount ETV
vector 78 Tictoc1.peer[78] HopCount ETV
vector 79 Tictoc1.peer[79] HopCount ETV
vector 80 Tictoc1.peer[80] HopCount ETV
vector 81 Tictoc1.peer[81] HopCount ETV
vector 82 Tictoc1.peer[82] HopCount ETV
vector 83 Tictoc1.peer[83] HopCount ETV
vector 84 Tictoc1.peer[84] HopCount ETV
vector 85 Tictoc1.peer[85] HopCount ETV
vector 86 Tictoc1.peer[86] HopCount ETV
vector 87 Tictoc1.peer[87] HopCount ETV
vector 88 Tictoc1.peer[88] HopCount ETV
vector 89 Tictoc1.peer[89] HopCount ETV
vector 90 Tictoc1.peer[90] HopCount ETV
vector 91 Tictoc1.peer[91] HopCount ETV
vector 92 Tictoc1.peer[92] HopCount ETV
vector 93 Tictoc1.peer[93] HopCount ETV
vector 94 Tictoc1.peer[94] HopCount ETV
vector 95 Tictoc1.peer[95] HopCount ETV
vector 96 Tictoc1.peer[96] HopCount ETV
vector 97 Tictoc1.peer[97] HopCount ETV
vector 98 Tictoc1.peer[98] HopCount ETV
vector 99 Tictoc1.peer[99] HopCount ETV
vector 100 Tictoc1.peer[100] HopCount ETV
vector 101 Tictoc1.peer[101] HopCount ETV
vector 102 Tictoc1.peer[102] HopCount ETV
vector 103 Tictoc1.peer[103] HopCount ETV
vector 104 Tictoc1.peer[104] HopCount ETV
vector 105 Tictoc1.peer[105] HopCount ETV
vector 106 Tictoc1.peer[106] HopCount ETV
vector 107 Tictoc1.peer[107] HopCount ETV
vector 108 Tictoc1.peer[108] HopCount ETV
vector 109 Tictoc1.peer[109] HopCount ETV
vector 110 Tictoc1.peer[110] HopCount ETV
vector 111 Tictoc1.peer[111] HopCount ETV
vector 112 Tictoc1.peer[112] HopCount ETV
vector 113 Tictoc1.peer[113] HopCount ETV
vector 114 Tictoc1.peer[114] HopCount ETV
vector 115 Tictoc1.peer[115] HopCount ETV
vector 116 Tictoc1.peer[116] HopCount ETV
vector 117 Tictoc1.peer[117] HopCount ETV
vector 118 Tictoc1.peer[118] HopCount ETV
vector 119 Tictoc1.peer[119] HopCount ETV
vector 120 Tictoc1.peer[120] HopCount ETV
vector 121 Tictoc1.peer[121] HopCount ETV
vector 122 Tictoc1.peer[122] HopCount ETV
vector 123 Tictoc1.peer[123] HopCount ETV
vector 124 Tictoc1.peer[124] HopCount ETV
vector 125 Tictoc1.peer[125] HopCount ETV
vector 126 Tictoc1.peer[126] HopCount ETV
vector 127 Tictoc1.peer[127] HopCount ETV
vector 128 Tictoc1.peer[128] HopCount ETV
vector 129 Tictoc1.peer[129] HopCount ETV
vector 130 Tictoc1.peer[130] HopCount ETV
vector 131 Tictoc1.peer[131] HopCount ETV
vector 132 Tictoc1.peer[132] HopCount ETV
vector 133 Tictoc1.peer[133] HopCount ETV
vector 134 Tictoc1.peer[134] HopCount ETV
vector 135 Tictoc1.peer[135] HopCount ETV
vector 136 Tictoc1.peer[136] HopCount ETV
vector 137 Tictoc1.peer[137] HopCount ETV
vector 138 Tictoc1.peer[138] HopCount ETV
vector 139 Tictoc1.peer[139] HopCount ETV
vector 140 Tictoc1.peer[140] HopCount ETV
vector 141 Tictoc1.peer[141] HopCount ETV
vector 142 Tictoc1.peer[142] HopCount ETV
vector 143 Tictoc1.peer[143] HopCount ETV
vector 144 Tictoc1.peer[144] HopCount ETV
vector 145 Tictoc1.peer[145] HopCount ETV
vector 146 Tictoc1.peer[146] HopCount ETV
vector 147 Tictoc1.peer[147] HopCount ETV
vector 148 Tictoc1.peer[148] HopCount ETV
vector 149 Tictoc1.peer[149] HopCount ETV
vector 150 Tictoc1.peer[150] HopCount ETV
vector 151 Tictoc1.peer[151] HopCount ETV
vector 152 Tictoc1.peer[152] HopCount ETV
vector 153 Tictoc1.peer[153] HopCount ETV
vector 154 Tictoc1.peer[154] HopCount ETV
vector 155 Tictoc1.peer[155] HopCount ETV
vector 156 Tictoc1.peer[156] HopCount ETV
vector 157 Tictoc1.peer[157] HopCount ETV
vector 158 Tictoc1.peer[158] HopCount ETV
vector 159 Tictoc1.peer[159] HopCount ETV
vector 160 Tictoc1.peer[160] HopCount ETV
vector 161 Tictoc1.peer[161] HopCount ETV
vector 162 Tictoc1.peer[162] HopCount ETV
vector 163 Tictoc1.peer[163] HopCount ETV
vector 164 Tictoc1.peer[164] HopCount ETV
vector 165 Tictoc1.peer[165] HopCount ETV
vector 166 Tictoc1.peer[166] HopCount ETV
vector 167 Tictoc1.peer[167] HopCount ETV
vector 168 Tictoc1.peer[168] HopCount ETV
vector 169 Tictoc1.peer[169] HopCount ETV
vector 170 Tictoc1.peer[170] HopCount ETV
vector 171 Tictoc1.peer[171] HopCount ETV
vector 172 Tictoc1.peer[172] HopCount ETV
vector 173 Tictoc1.peer[173] HopCount ETV
vector 174 Tictoc1.peer[174] HopCount ETV
vector 175 Tictoc1.peer[175] HopCount ETV
vector 176 Tictoc1.peer[176] HopCount ETV
vector 177 Tictoc1.peer[177] HopCount ETV
vector 178 Tictoc1.peer[178] HopCount ETV
vector 179 Tictoc1.peer[179] HopCount ETV
vector 180 Tictoc1.peer[180] HopCount ETV
vector 181 Tictoc1.peer[181] HopCount ETV
vector 182 Tictoc1.peer[182] HopCount ETV
vector 183 Tictoc1.peer[183] HopCount ETV
vector 184 Tictoc1.peer[184] HopCount ETV
vector 185 Tictoc1.peer[185] HopCount ETV
vector 186 Tictoc1.peer[186] HopCount ETV
vector 187 Tictoc1.peer[187] HopCount ETV
vector 188 Tictoc1.peer[188] HopCount ETV
vector 189 Tictoc1.peer[189] HopCount ETV
vector 190 Tictoc1.peer[190] HopCount ETV
vector 191 Tictoc1.peer[191] HopCount ETV
vector 192 Tictoc1.peer[192] HopCount ETV
vector 193 Tictoc1.peer[193] HopCount ETV
vector 194 Tictoc1.peer[194] HopCount ETV
vector 195 Tictoc1.peer[195] HopCount ETV
vector 196 Tictoc1.peer[196] HopCount ETV
vector 197 Tictoc1.peer[197] HopCount ETV
vector 198 Tictoc1.peer[198] HopCount ETV
vector 199 Tictoc1.peer[199] HopCount ETV
vector 200 Tictoc1.peer[200] HopCount ETV
vector 201 Tictoc1.peer[201] HopCount ETV
vector 202 Tictoc1.peer[202] HopCount ETV
vector 203 Tictoc1.peer[203] HopCount ETV
vector 204 Tictoc1.peer[204] HopCount ETV
vector 205 Tictoc1.peer[205] HopCount ETV
vector 206 Tictoc1.peer[206] HopCount ETV
vector 207 Tictoc1.peer[207] HopCount ETV
vector 208 Tictoc1.peer[208] HopCount ETV
vector 209 Tictoc1.peer[209] HopCount ETV
vector 210 Tictoc1.peer[210] HopCount ETV
vector 211 Tictoc1.peer[211] HopCount ETV
vector 212 Tictoc1.peer[212] HopCount ETV
vector 213 Tictoc1.peer[213] HopCount ETV
vector 214 Tictoc1.peer[214] HopCount ETV
vector 215 Tictoc1.peer[215] HopCount ETV
vector 216 Tictoc1.peer[216] HopCount ETV
vector 217 Tictoc1.peer[217] HopCount ETV
vector 218 Tictoc1.peer[218] HopCount ETV
vector 219 Tictoc1.peer[219] HopCount ETV
vector 220 Tictoc1.peer[220] HopCount ETV
vector 221 Tictoc1.peer[221] HopCount ETV
vector 222 Tictoc1.peer[222] HopCount ETV
vector 223 Tictoc1.peer[223] HopCount ETV
vector 224 Tictoc1.peer[224] HopCount ETV
vector 225 Tictoc1.peer[225] HopCount ETV
vector 226 Tictoc1.peer[226] HopCount ETV
vector 227 Tictoc1.peer[227] HopCount ETV
vector 228 Tictoc1.peer[228] HopCount ETV
vector 229 Tictoc1.peer[229] HopCount ETV
vector 230 Tictoc1.peer[230] HopCount ETV
vector 231 Tictoc1.peer[231] HopCount ETV
vector 232 Tictoc1.peer[232] HopCount ETV
vector 233 Tictoc1.peer[233] HopCount ETV
vector 234 Tictoc1.peer[234] HopCount ETV
vector 235 Tictoc1.peer[235] HopCount ETV
vector 236 Tictoc1.peer[236] HopCount ETV
vector 237 Tictoc1.peer[237] HopCount ETV
vector 238 Tictoc1.peer[238] HopCount ETV
vector 239 Tictoc1.peer[239] HopCount ETV
vector 240 Tictoc1.peer[240] HopCount ETV
vector 241 Tictoc1.peer[241] HopCount ETV
vector 242 Tictoc1.peer[242] HopCount ETV
vector 243 Tictoc1.peer[243] HopCount ETV
vector 244 Tictoc1.peer[244] HopCount ETV
vector 245 Tictoc1.peer[245] HopCount ETV
vector 246 Tictoc1.peer[246] HopCount ETV
vector 247 Tictoc1.peer[247] HopCount ETV
vector 248 Tictoc1.peer[248] HopCount ETV
vector 249 Tictoc1.peer[249] HopCount ETV
vector 250 Tictoc1.peer[250] HopCount ETV
vector 251 Tictoc1.peer[251] HopCount ETV
vector 252 Tictoc1.peer[252] HopCount ETV
vector 253 Tictoc1.peer[253] HopCount ETV
vector 254 Tictoc1.peer[254] HopCount ETV
vector 255 Tictoc1.peer[255] HopCount ETV
vector 256 Tictoc1.peer[256] HopCount ETV
vector 257 Tictoc1.peer[257] HopCount ETV
vector 258 Tictoc1.peer[258] HopCount ETV
vector 259 Tictoc1.peer[259] HopCount ETV
vector 260 Tictoc1.peer[260] HopCount ETV
vector 261 Tictoc1.peer[261] HopCount ETV
vector 262 Tictoc1.peer[262] HopCount ETV
vector 263 Tictoc1.peer[263] HopCount ETV
vector 264 Tictoc1.peer[264] HopCount ETV
vector 265 Tictoc1.peer[265] HopCount ETV
vector 266 Tictoc1.peer[266] HopCount ETV
vector 267 Tictoc1.peer[267] HopCount ETV
vector 268 Tictoc1.peer[268] HopCount ETV
vector 269 Tictoc1.peer[269] HopCount ETV
vector 270 Tictoc1.peer[270] HopCount ETV
vector 271 Tictoc1.peer[271] HopCount ETV
vector 272 Tictoc1.peer[272] HopCount ETV
vector 273 Tictoc1.peer[273] HopCount ETV
vector 274 Tictoc1.peer[274] HopCount ETV
vector 275 Tictoc1.peer[275] HopCount ETV
vector 276 Tictoc1.peer[276] HopCount ETV
vector 277 Tictoc1.peer[277] HopCount ETV
vector 278 Tictoc1.peer[278] HopCount ETV
vector 279 Tictoc1.peer[279] HopCount ETV
vector 280 Tictoc1.peer[280] HopCount ETV
vector 281 Tictoc1.peer[281] HopCount ETV
vector 282 Tictoc1.peer[282] HopCount ETV
vector 283 Tictoc1.peer[283] HopCount ETV
vector 284 Tictoc1.peer[284] HopCount ETV
vector 285 Tictoc1.peer[285] HopCount ETV
vector 286 Tictoc1.peer[286] HopCount ETV
vector 287 Tictoc1.peer[287] HopCount ETV
vector 288 Tictoc1.peer[288] HopCount ETV
vector 289 Tictoc1.peer[289] HopCount ETV
vector 290 Tictoc1.peer[290] HopCount ETV
vector 291 Tictoc1.peer[291] HopCount ETV
vector 292 Tictoc1.peer[292] HopCount ETV
vector 293 Tictoc1.peer[293] HopCount ETV
vector 294 Tictoc1.peer[294] HopCount ETV
vector 295 Tictoc1.peer[295] HopCount ETV
vector 296 Tictoc1.peer[296] HopCount ETV
vector 297 Tictoc1.peer[297] HopCount ETV
vector 298 Tictoc1.peer[298] HopCount ETV
vector 299 Tictoc1.peer[299] HopCount ETV
vector 300 Tictoc1.peer[300] HopCount ETV
vector 301 Tictoc1.peer[301] HopCount ETV
vector 302 Tictoc1.peer[302] HopCount ETV
vector 303 Tictoc1.peer[303] HopCount ETV
vector 304 Tictoc1.peer[304] HopCount ETV
vector 305 Tictoc1.peer[305] HopCount ETV
vector 306 Tictoc1.peer[306] HopCount ETV
vector 307 Tictoc1.peer[307] HopCount ETV
vector 308 Tictoc1.peer[308] HopCount ETV
vector 309 Tictoc1.peer[309] HopCount ETV
vector 310 Tictoc1.peer[310] HopCount ETV
vector 311 Tictoc1.peer[311] HopCount ETV
vector 312 Tictoc1.peer[312] HopCount ETV
vector 313 Tictoc1.peer[313] HopCount ETV
vector 314 Tictoc1.peer[314] HopCount ETV
vector 315 Tictoc1.peer[315] HopCount ETV
vector 316 Tictoc1.peer[316] HopCount ETV
vector 317 Tictoc1.peer[317] HopCount ETV
vector 318 Tictoc1.peer[318] HopCount ETV
vector 319 Tictoc1.peer[319] HopCount ETV
vector 320 Tictoc1.peer[320] HopCount ETV
vector 321 Tictoc1.peer[321] HopCount ETV
vector 322 Tictoc1.peer[322] HopCount ETV
vector 323 Tictoc1.peer[323] HopCount ETV
vector 324 Tictoc1.peer[324] HopCount ETV
vector 325 Tictoc1.peer[325] HopCount ETV
vector 326 Tictoc1.peer[326] HopCount ETV
vector 327 Tictoc1.peer[327] HopCount ETV
vector 328 Tictoc1.peer[328] HopCount ETV
vector 329 Tictoc1.peer[329] HopCount ETV
vector 330 Tictoc1.peer[330] HopCount ETV
vector 331 Tictoc1.peer[331] HopCount ETV
vector 332 Tictoc1.peer[332] HopCount ETV
vector 333 Tictoc1.peer[333] HopCount ETV
vector 334 Tictoc1.peer[334] HopCount ETV
vector 335 Tictoc1.peer[335] HopCount ETV
vector 336 Tictoc1.peer[336] HopCount ETV
vector 337 Tictoc1.peer[337] HopCount ETV
vector 338 Tictoc1.peer[338] HopCount ETV
vector 339 Tictoc1.peer[339] HopCount ETV
vector 340 Tictoc1.peer[340] HopCount ETV
vector 341 Tictoc1.peer[341] HopCount ETV
vector 342 Tictoc1.peer[342] HopCount ETV
vector 343 Tictoc1.peer[343] HopCount ETV
vector 344 Tictoc1.peer[344] HopCount ETV
vector 345 Tictoc1.peer[345] HopCount ETV
vector 346 Tictoc1.peer[346] HopCount ETV
vector 347 Tictoc1.peer[347] HopCount ETV
vector 348 Tictoc1.peer[348] HopCount ETV
vector 349 Tictoc1.peer[349] HopCount ETV
vector 350 Tictoc1.peer[350] HopCount ETV
vector 351 Tictoc1.peer[351] HopCount ETV
vector 352 Tictoc1.peer[352] HopCount ETV
vector 353 Tictoc1.peer[353] HopCount ETV
vector 354 Tictoc1.peer[354] HopCount ETV
vector 355 Tictoc1.peer[355] HopCount ETV
vector 356 Tictoc1.peer[356] HopCount ETV
vector 357 Tictoc1.peer[357] HopCount ETV
vector 358 Tictoc1.peer[358] HopCount ETV
vector 359 Tictoc1.peer[359] HopCount ETV
vector 360 Tictoc1.peer[360] HopCount ETV
vector 361 Tictoc1.peer[361] HopCount ETV
vector 362 Tictoc1.peer[362] HopCount ETV
vector 363 Tictoc1.peer[363] HopCount ETV
vector 364 Tictoc1.peer[364] HopCount ETV
vector 365 Tictoc1.peer[365] HopCount ETV
vector 366 Tictoc1.peer[366] HopCount ETV
vector 367 Tictoc1.peer[367] HopCount ETV
vector 368 Tictoc1.peer[368] HopCount ETV
vector 369 Tictoc1.peer[369] HopCount ETV
vector 370 Tictoc1.peer[370] HopCount ETV
vector 371 Tictoc1.peer[371] HopCount ETV
vector 372 Tictoc1.peer[372] HopCount ETV
vector 373 Tictoc1.peer[373] HopCount ETV
vector 374 Tictoc1.peer[374] HopCount ETV
vector 375 Tictoc1.peer[375] HopCount ETV
vector 376 Tictoc1.peer[376] HopCount ETV
vector 377 Tictoc1.peer[377] HopCount ETV
vector 378 Tictoc1.peer[378] HopCount ETV
vector 379 Tictoc1.peer[379] HopCount ETV
vector 380 Tictoc1.peer[380] HopCount ETV
vector 381 Tictoc1.peer[381] HopCount ETV
vector 382 Tictoc1.peer[382] HopCount ETV
vector 383 Tictoc1.peer[383] HopCount ETV
vector 384 Tictoc1.peer[384] HopCount ETV
vector 385 Tictoc1.peer[385] HopCount ETV
vector 386 Tictoc1.peer[386] HopCount ETV
vector 387 Tictoc1.peer[387] HopCount ETV
vector 388 Tictoc1.peer[388] HopCount ETV
vector 389 Tictoc1.peer[389] HopCount ETV
vector 390 Tictoc1.peer[390] HopCount ETV
vector 391 Tictoc1.peer[391] HopCount ETV
vector 392 Tictoc1.peer[392] HopCount ETV
vector 393 Tictoc1.peer[393] HopCount ETV
vector 394 Tictoc1.peer[394] HopCount ETV
vector 395 Tictoc1.peer[395] HopCount ETV
vector 396 Tictoc1.peer[396] HopCount ETV
vector 397 Tictoc1.peer[397] HopCount ETV
vector 398 Tictoc1.peer[398] HopCount ETV
vector 399 Tictoc1.peer[399] HopCount ETV
vector 400 Tictoc1.peer[400] HopCount ETV
vector 401 Tictoc1.peer[401] HopCount ETV
vector 402 Tictoc1.peer[402] HopCount ETV
vector 403 Tictoc1.peer[403] HopCount ETV
vector 404 Tictoc1.peer[404] HopCount ETV
vector 405 Tictoc1.peer[405] HopCount ETV
vector 406 Tictoc1.peer[406] HopCount ETV
vector 407 Tictoc1.peer[407] HopCount ETV
vector 408 Tictoc1.peer[408] HopCount ETV
vector 409 Tictoc1.peer[409] HopCount ETV
vector 410 Tictoc1.peer[410] HopCount ETV
vector 411 Tictoc1.peer[411] HopCount ETV
vector 412 Tictoc1.peer[412] HopCount ETV
vector 413 Tictoc1.peer[413] HopCount ETV
vector 414 Tictoc1.peer[414] HopCount ETV
vector 415 Tictoc1.peer[415] HopCount ETV
vector 416 Tictoc1.peer[416] HopCount ETV
vector 417 Tictoc1.peer[417] HopCount ETV
vector 418 Tictoc1.peer[418] HopCount ETV
vector 419 Tictoc1.peer[419] HopCount ETV
vector 420 Tictoc1.peer[420] HopCount ETV
vector 421 Tictoc1.peer[421] HopCount ETV
vector 422 Tictoc1.peer[422] HopCount ETV
vector 423 Tictoc1.peer[423] HopCount ETV
vector 424 Tictoc1.peer[424] HopCount ETV
vector 425 Tictoc1.peer[425] HopCount ETV
vector 426 Tictoc1.peer[426] HopCount ETV
vector 427 Tictoc1.peer[427] HopCount ETV
vector 428 Tictoc1.peer[428] HopCount ETV
vector 429 Tictoc1.peer[429] HopCount ETV
vector 430 Tictoc1.peer[430] HopCount ETV
vector 431 Tictoc1.peer[431] HopCount ETV
vector 432 Tictoc1.peer[432] HopCount ETV
vector 433 Tictoc1.peer[433] HopCount ETV
vector 434 Tictoc1.peer[434] HopCount ETV
vector 435 Tictoc1.peer[435] HopCount ETV
vector 436 Tictoc1.peer[436] HopCount ETV
vector 437 Tictoc1.peer[437] HopCount ETV
vector 438 Tictoc1.peer[438] HopCount ETV
vector 439 Tictoc1.peer[439] HopCount ETV
vector 440 Tictoc1.peer[440] HopCount ETV
vector 441 Tictoc1.peer[441] HopCount ETV
vector 442 Tictoc1.peer[442] HopCount ETV
vector 443 Tictoc1.peer[443] HopCount ETV
vector 444 Tictoc1.peer[444] HopCount ETV
vector 445 Tictoc1.peer[445] HopCount ETV
vector 446 Tictoc1.peer[446] HopCount ETV
vector 447 Tictoc1.peer[447] HopCount ETV
vector 448 Tictoc1.peer[448] HopCount ETV
vector 449 Tictoc1.peer[449] HopCount ETV
vector 450 Tictoc1.peer[450] HopCount ETV
vector 451 Tictoc1.peer[451] HopCount ETV
vector 452 Tictoc1.peer[452] HopCount ETV
vector 453 Tictoc1.peer[453] HopCount ETV
vector 454 Tictoc1.peer[454] HopCount ETV
vector 455 Tictoc1.peer[455] HopCount ETV
vector 456 Tictoc1.peer[456] HopCount ETV
vector 457 Tictoc1.peer[457] HopCount ETV
vector 458 Tictoc1.peer[458] HopCount ETV
vector 459 Tictoc1.peer[459] HopCount ETV
vector 460 Tictoc1.peer[460] HopCount ETV
vector 461 Tictoc1.peer[461] HopCount ETV
vector 462 Tictoc1.peer[462] HopCount ETV
vector 463 Tictoc1.peer[463] HopCount ETV
vector 464 Tictoc1.peer[464] HopCount ETV
vector 465 Tictoc1.peer[465] HopCount ETV
vector 466 Tictoc1.peer[466] HopCount ETV
vector 467 Tictoc1.peer[467] HopCount ETV
vector 468 Tictoc1.peer[468] HopCount ETV
vector 469 Tictoc1.peer[469] HopCount ETV
vector 470 Tictoc1.peer[470] HopCount ETV
vector 471 Tictoc1.peer[471] HopCount ETV
vector 472 Tictoc1.peer[472] HopCount ETV
vector 473 Tictoc1.peer[473] HopCount ETV
vector 474 Tictoc1.peer[474] HopCount ETV
vector 475 Tictoc1.peer[475] HopCount ETV
vector 476 Tictoc1.peer[476] HopCount ETV
vector 477 Tictoc1.peer[477] HopCount ETV
vector 478 Tictoc1.peer[478] HopCount ETV
vector 479 Tictoc1.peer[479] HopCount ETV
vector 480 Tictoc1.peer[480] HopCount ETV
vector 481 Tictoc1.peer[481] HopCount ETV
vector 482 Tictoc1.peer[482] HopCount ETV
vector 483 Tictoc1.peer[483] HopCount ETV
vector 484 Tictoc1.peer[484] HopCount ETV
vector 485 Tictoc1.peer[485] HopCount ETV
vector 486 Tictoc1.peer[486] HopCount ETV
vector 487 Tictoc1.peer[487] HopCount ETV
vector 488 Tictoc1.peer[488] HopCount ETV
vector 489 Tictoc1.peer[489] HopCount ETV
vector 490 Tictoc1.peer[490] HopCount ETV
vector 491 Tictoc1.peer[491] HopCount ETV
vector 492 Tictoc1.peer[492] HopCount ETV
vector 493 Tictoc1.peer[493] HopCount ETV
vector 494 Tictoc1.peer[494] HopCount ETV
vector 495 Tictoc1.peer[495] HopCount ETV
vector 496 Tictoc1.peer[496] HopCount ETV
vector 497 Tictoc1.peer[497] HopCount ETV
vector 498 Tictoc1.peer[498] HopCount ETV
vector 499 Tictoc1.peer[499] HopCount ETV
0	7501	1.5	1
0	10001	2	2
0	12501	2.5	3
0	15001	3	4
0	18001	3.5	5
0	20501	4	6
0	23001	4.5	7
0	25501	5	8
0	28501	5.5	9
0	31001	6	10
0	33501	6.5	11
0	36001	7	12
0	39001	7.5	13
0	41501	8	14
0	44001	8.5	15
0	46501	9	16
0	49501	9.5	17
0	52001	10	18
0	54406	10.5	19
0	56788	11	20
0	59625	11.5	21
0	61958	12	22
0	64261	12.5	23
0	67334	13.1	24
0	69892	13.7	25
0	72828	14.3	26
0	75116	14.9	27
0	77562	15.5	28
0	79810	16.1	29
0	82226	16.7	30
0	84319	17.3	31
0	86585	17.9	32
0	88330	18.5	33
0	90469	19.1	34
0	92208	19.7	35
0	94229	20.3	36
0	95742	20.9	37
0	97487	21.5	38
0	98951	22.1	39
0	100527	22.7	40
0	101878	23.3	41
0	103299	23.9	42
0	104426	24.5	43
0	105689	25.1	44
0	106719	25.7	45
0	107859	26.3	46
0	108653	26.9	47
0	109611	27.5	48
0	110383	28.1	49
0	111111	28.7	50
0	111722	29.3	51
0	112272	29.9	52
0	112679	30.5	53
0	113052	31.1	54
0	113365	31.7	55
0	113668	32.3	56
0	113919	32.9	57
0	114210	33.5	58
0	114463	34.1	59
0	114766	34.7	60
0	115017	35.3	61
0	115318	35.9	62
0	115561	36.5	63
0	115864	37.1	64
0	116115	37.7	65
0	116416	38.3	66
0	116669	38.9	67
0	116962	39.5	68
0	117213	40.1	69
0	117514	40.7	70
0	117767	41.3	71
0	118070	41.9	72
0	118311	42.5	73
0	118612	43.1	74
0	118865	43.7	75
0	119168	44.3	76
0	119419	44.9	77
0	119710	45.5	78
0	119963	46.1	79
0	120266	46.7	80
0	120517	47.3	81
0	120818	47.9	82
0	121061	48.5	83
0	121364	49.1	84
0	121615	49.7	85
0	121916	50.3	86
0	122169	50.9	87
0	122442	51.5	88
0	122633	52.1	89
0	122864	52.7	90
0	123057	53.3	91
0	123290	53.9	92
0	123481	54.5	93
0	123712	55.1	94
0	123905	55.7	95
0	124134	56.3	96
0	124298	56.9	97
0	124437	57.5	98
0	124524	58.1	99
0	124595	58.7	100
1	7502	1.5	1
1	10002	2	2
1	12502	2.5	3
1	15002	3	4
1	18002	3.5	5
1	20502	4	6
1	23002	4.5	7
1	25502	5	8
1	28502	5.5	9
1	31002	6	10
1	33502	6.5	11
1	36002	7	12
1	39002	7.5	13
1	41502	8	14
1	44002	8.5	15
1	46502	9	16
1	49502	9.5	17
1	52002	10	18
1	54407	10.5	19
1	56789	11	20
1	59626	11.5	21
1	61959	12	22
1	64262	12.5	23
1	67335	13.1	24
1	69893	13.7	25
1	72829	14.3	26
1	75117	14.9	27
1	85408	17.6	28
2	7503	1.5	1
2	10003	2	2
2	12503	2.5	3
2	15003	3	4
2	18003	3.5	5
2	20503	4	6
2	23003	4.5	7
2	25503	5	8
2	28503	5.5	9
2	31003	6	10
2	33503	6.5	11
2	36003	7	12
2	39003	7.5	13
2	41503	8	14
2	44003	8.5	15
2	46503	9	16
2	49503	9.5	17
2	52003	10	18
2	54408	10.5	19
2	56790	11	20
2	59627	11.5	21
3	7504	1.5	1
3	10004	2	2
3	12504	2.5	3
3	15004	3	4
3	18004	3.5	5
3	20504	4	6
3	23004	4.5	7
3	25504	5	8
3	28504	5.5	9
3	31004	6	10
3	33504	6.5	11
3	36004	7	12
3	39004	7.5	13
3	41504	8	14
3	44004	8.5	15
3	46504	9	16
3	49504	9.5	17
3	52004	10	18
3	65539	12.7	19
3	68216	13.3	20
3	71153	13.9	21
3	73254	14.5	22
3	75979	15.1	23
3	78253	15.7	24
3	80870	16.3	25
3	82886	16.9	26
3	85080	17.5	27
3	87024	18.1	28
3	89199	18.7	29
3	91050	19.3	30
3	93042	19.9	31
3	94579	20.5	32
3	96392	21.1	33
3	97914	21.7	34
3	99621	22.3	35
3	100918	22.9	36
3	102387	23.5	37
3	103623	24.1	38
3	104908	24.7	39
3	106032	25.3	40
3	107171	25.9	41
3	108066	26.5	42
3	109032	27.1	43
3	109824	27.7	44
3	110699	28.3	45
3	111273	28.9	46
4	7505	1.5	1
4	10005	2	2
4	12505	2.5	3
4	15005	3	4
4	18005	3.5	5
4	20505	4	6
4	23005	4.5	7
4	25505	5	8
4	28505	5.5	9
4	31005	6	10
4	33505	6.5	11
4	36005	7	12
4	39005	7.5	13
4	41505	8	14
4	44005	8.5	15
4	46505	9	16
4	49505	9.5	17
4	52005	10	18
4	65540	12.7	19
4	68217	13.3	20
4	71154	13.9	21
4	73255	14.5	22
4	75980	15.1	23
4	86002	17.8	24
4	88263	18.4	25
4	89924	19	26
4	91996	19.6	27
4	93728	20.2	28
4	95535	20.8	29
4	97148	21.4	30
4	98770	22	31
4	100150	22.6	32
4	101711	23.2	33
4	102946	23.8	34
5	7506	1.5	1
5	10006	2	2
5	12506	2.5	3
5	15006	3	4
5	18006	3.5	5
5	20506	4	6
5	23006	4.5	7
5	25506	5	8
5	28506	5.5	9
5	31006	6	10
5	33506	6.5	11
5	36006	7	12
5	39006	7.5	13
5	41506	8	14
5	44006	8.5	15
5	46506	9	16
5	49506	9.5	17
6	7507	1.5	1
6	10007	2	2
6	12507	2.5	3
6	15007	3	4
6	18007	3.5	5
6	20507	4	6
6	23007	4.5	7
6	25507	5	8
6	28507	5.5	9
6	31007	6	10
6	33507	6.5	11
6	36007	7	12
6	39007	7.5	13
6	41507	8	14
6	44007	8.5	15
6	46507	9	16
6	49507	9.5	17
7	7508	1.5	1
7	10008	2	2
7	12508	2.5	3
7	15008	3	4
7	18008	3.5	5
7	20508	4	6
7	23008	4.5	7
7	25508	5	8
7	28508	5.5	9
7	31008	6	10
7	33508	6.5	11
7	36008	7	12
7	39008	7.5	13
7	41508	8	14
7	44008	8.5	15
7	46508	9	16
7	49508	9.5	17
8	7509	1.5	1
8	10009	2	2
8	12509	2.5	3
8	15009	3	4
8	18009	3.5	5
8	20509	4	6
8	23009	4.5	7
8	25509	5	8
8	28509	5.5	9
8	31009	6	10
8	33509	6.5	11
8	36009	7	12
8	39009	7.5	13
8	41509	8	14
8	44009	8.5	15
8	46509	9	16
8	49509	9.5	17
8	52009	10	18
8	54409	10.5	19
8	56791	11	20
8	59628	11.5	21
8	61961	12	22
8	64263	12.5	23
8	66488	13	24
8	69101	13.5	25
8	71641	14.1	26
8	74348	14.7	27
8	76767	15.3	28
8	79347	15.9	29
9	7510	1.5	1
9	10010	2	2
9	12510	2.5	3
9	15010	3	4
9	18010	3.5	5
9	20510	4	6
9	23010	4.5	7
9	25510	5	8
9	28510	5.5	9
9	31010	6	10
9	33510	6.5	11
9	36010	7	12
9	39010	7.5	13
9	41510	8	14
9	44010	8.5	15
9	46510	9	16
9	49510	9.5	17
9	52010	10	18
9	54410	10.5	19
10	7511	1.5	1
10	10011	2	2
10	12511	2.5	3
10	15011	3	4
10	18011	3.5	5
10	20511	4	6
10	23011	4.5	7
10	25511	5	8
10	28511	5.5	9
10	31011	6	10
10	33511	6.5	11
10	36011	7	12
10	39011	7.5	13
10	41511	8	14
10	44011	8.5	15
10	46511	9	16
10	49511	9.5	17
10	52011	10	18
10	54411	10.5	19
10	56793	11	20
10	59629	11.5	21
10	61962	12	22
10	64264	12.5	23
10	66489	13	24
10	69102	13.5	25
10	71238	14	26
10	73273	14.5	27
10	75997	15.1	28
10	78268	15.7	29
10	80885	16.3	30
10	82899	16.9	31
10	85093	17.5	32
10	87036	18.1	33
10	89206	18.7	34
10	91057	19.3	35
10	93049	19.9	36
10	94586	20.5	37
10	96399	21.1	38
10	97920	21.7	39
10	99627	22.3	40
10	100922	22.9	41
10	102391	23.5	42
10	103626	24.1	43
10	104910	24.7	44
10	106034	25.3	45
10	107173	25.9	46
10	108067	26.5	47
10	109033	27.1	48
10	109825	27.7	49
10	110700	28.3	50
10	111274	28.9	51
10	111904	29.5	52
10	112431	30.1	53
10	112810	30.7	54
10	113183	31.3	55
10	113484	31.9	56
10	113727	32.5	57
10	114030	33.1	58
10	114281	33.7	59
10	114582	34.3	60
10	114835	34.9	61
10	115128	35.5	62
10	115379	36.1	63
10	115680	36.7	64
10	115933	37.3	65
10	116236	37.9	66
10	116477	38.5	67
10	116778	39.1	68
10	117031	39.7	69
10	117334	40.3	70
10	117585	40.9	71
10	117876	41.5	72
10	118129	42.1	73
10	118432	42.7	74
10	118683	43.3	75
10	118984	43.9	76
10	119227	44.5	77
10	119530	45.1	78
10	119781	45.7	79
10	120082	46.3	80
10	120335	46.9	81
10	120628	47.5	82
10	120879	48.1	83
10	121180	48.7	84
10	121433	49.3	85
10	121736	49.9	86
10	121977	50.5	87
10	122278	51.1	88
10	122491	51.7	89
10	122724	52.3	90
10	122915	52.9	91
10	123146	53.5	92
10	123339	54.1	93
10	123572	54.7	94
10	123763	55.3	95
10	123994	55.9	96
10	124180	56.5	97
10	124364	57.1	98
10	124462	57.7	99
10	124555	58.3	100
11	7512	1.5	1
11	10012	2	2
11	12512	2.5	3
11	15012	3	4
11	18012	3.5	5
11	20512	4	6
11	23012	4.5	7
11	25512	5	8
11	28512	5.5	9
11	31012	6	10
11	33512	6.5	11
11	36012	7	12
11	39012	7.5	13
11	41512	8	14
11	44012	8.5	15
11	46512	9	16
11	49512	9.5	17
11	52012	10	18
11	54412	10.5	19
11	56794	11	20
11	59630	11.5	21
11	61963	12	22
11	64265	12.5	23
11	66490	13	24
11	69103	13.5	25
11	71239	14	26
11	82256	16.7	27
11	84349	17.3	28
11	86614	17.9	29
11	94835	20.6	30
11	96688	21.2	31
11	98174	21.8	32
11	99859	22.4	33
11	101092	23	34
11	102584	23.6	35
11	103817	24.2	36
11	105077	24.8	37
11	106201	25.4	38
11	107317	26	39
11	108191	26.6	40
11	109183	27.2	41
11	109952	27.8	42
11	110792	28.4	43
11	111368	29	44
11	111974	29.6	45
12	7513	1.5	1
12	10013	2	2
12	12513	2.5	3
12	15013	3	4
12	18013	3.5	5
12	20513	4	6
12	23013	4.5	7
12	25513	5	8
12	28513	5.5	9
12	31013	6	10
12	33513	6.5	11
12	36013	7	12
12	39013	7.5	13
12	41513	8	14
12	44013	8.5	15
12	46513	9	16
12	49513	9.5	17
12	52013	10	18
12	54413	10.5	19
12	56795	11	20
12	59631	11.5	21
12	61964	12	22
12	64266	12.5	23
12	66491	13	24
12	69104	13.5	25
12	71240	14	26
12	73274	14.5	27
12	75227	15	28
12	77586	15.5	29
12	79833	16.1	30
12	82247	16.7	31
12	84340	17.3	32
12	86605	17.9	33
13	7514	1.5	1
13	10014	2	2
13	12514	2.5	3
13	15014	3	4
13	18014	3.5	5
13	20514	4	6
13	23014	4.5	7
13	25514	5	8
13	28514	5.5	9
13	31014	6	10
13	33514	6.5	11
13	36014	7	12
13	39014	7.5	13
13	41514	8	14
13	44014	8.5	15
13	46514	9	16
13	49514	9.5	17
13	52014	10	18
13	54414	10.5	19
13	56796	11	20
13	59632	11.5	21
13	61965	12	22
13	64267	12.5	23
13	66492	13	24
13	69105	13.5	25
13	71241	14	26
13	73275	14.5	27
13	75228	15	28
13	77587	15.5	29
13	79479	16	30
13	81297	16.5	31
13	83671	17.1	32
13	85667	17.7	33
13	87947	18.3	34
14	7515	1.5	1
14	10015	2	2
14	12515	2.5	3
14	15015	3	4
14	18015	3.5	5
14	20515	4	6
14	23015	4.5	7
14	25515	5	8
14	28515	5.5	9
14	31015	6	10
14	33515	6.5	11
14	36015	7	12
14	39015	7.5	13
14	41515	8	14
14	44015	8.5	15
14	46515	9	16
14	49515	9.5	17
14	52015	10	18
14	54415	10.5	19
14	56797	11	20
14	69907	13.7	21
14	72843	14.3	22
14	75131	14.9	23
14	77576	15.5	24
14	79823	16.1	25
14	82238	16.7	26
14	84331	17.3	27
14	86597	17.9	28
14	88340	18.5	29
14	90479	19.1	30