version 3
run Tictoc1-0-20240119-17:36:32-13811
attr configname Tictoc1
attr datetime 20240119-17:36:32
attr datetimef 20240119-173632
attr experiment Tictoc1
attr inifile omnetpp.ini
attr iterationvars ""
attr iterationvarsd ""
attr iterationvarsf ""
attr measurement ""
attr network Tictoc1
attr processid 13811
attr repetition 0
attr replication #0
attr resultdir results
attr runnumber 0
attr seedset 0
config network Tictoc1

vector 0 Tictoc1.peer[0] HopCount ETV
vector 1 Tictoc1.peer[1] HopCount ETV
vector 2 Tictoc1.peer[2] HopCount ETV
0	58	1.5	1
0	73	2	2
0	88	2.5	3
0	103	3	4
0	118	3.5	5
0	133	4	6
0	148	4.5	7
0	163	5	8
0	244	7.7	9
0	260	8.3	10
0	276	8.9	11
0	294	9.5	12
0	310	10.1	13
0	326	10.7	14
0	342	11.3	15
0	358	11.9	16
0	376	12.5	17
0	392	13.1	18
0	408	13.7	19
0	424	14.3	20
0	440	14.9	21
0	458	15.5	22
0	474	16.1	23
0	490	16.7	24
0	506	17.3	25
0	522	17.9	26
0	540	18.5	27
0	556	19.1	28
0	572	19.7	29
0	588	20.3	30
0	604	20.9	31
0	622	21.5	32
0	638	22.1	33
0	654	22.7	34
0	670	23.3	35
0	686	23.9	36
0	704	24.5	37
0	720	25.1	38
0	736	25.7	39
0	752	26.3	40
0	768	26.9	41
0	786	27.5	42
0	802	28.1	43
0	818	28.7	44
0	834	29.3	45
0	850	29.9	46
0	868	30.5	47
0	884	31.1	48
0	900	31.7	49
0	916	32.3	50
0	932	32.9	51
0	950	33.5	52
0	966	34.1	53
0	982	34.7	54
0	998	35.3	55
0	1014	35.9	56
0	1032	36.5	57
0	1048	37.1	58
0	1064	37.7	59
0	1080	38.3	60
0	1096	38.9	61
0	1114	39.5	62
0	1130	40.1	63
1	59	1.5	1
1	74	2	2
1	89	2.5	3
1	104	3	4
1	119	3.5	5
1	134	4	6
1	149	4.5	7
1	164	5	8
1	177	5.5	9
1	190	6	10
1	206	6.5	11
1	222	7	12
1	239	7.5	13
1	254	8	14
1	267	8.5	15
1	281	9	16
1	295	9.5	17
1	308	10	18
1	322	10.5	19
1	336	11	20
1	349	11.5	21
1	363	12	22
1	377	12.5	23
1	390	13	24
1	404	13.5	25
1	418	14	26
1	431	14.5	27
1	445	15	28
1	459	15.5	29
1	472	16	30
1	486	16.5	31
1	500	17	32
1	513	17.5	33
1	527	18	34
1	541	18.5	35
1	554	19	36
1	568	19.5	37
1	582	20	38
1	595	20.5	39
1	609	21	40
1	623	21.5	41
1	636	22	42
1	650	22.5	43
1	664	23	44
1	677	23.5	45
1	691	24	46
1	705	24.5	47
1	718	25	48
1	732	25.5	49
1	746	26	50
1	759	26.5	51
1	773	27	52
1	787	27.5	53
1	800	28	54
1	814	28.5	55
1	828	29	56
1	841	29.5	57
1	855	30	58
1	869	30.5	59
1	882	31	60
1	896	31.5	61
1	910	32	62
1	923	32.5	63
1	937	33	64
1	951	33.5	65
1	964	34	66
1	978	34.5	67
1	992	35	68
1	1005	35.5	69
1	1019	36	70
1	1033	36.5	71
1	1046	37	72
1	1060	37.5	73
1	1074	38	74
1	1087	38.5	75
1	1101	39	76
1	1115	39.5	77
1	1128	40	78
1	1140	40.5	79
1	1152	41	80
1	1168	41.5	81
1	1180	42	82
1	1185	42.5	83
1	1190	43	84
1	1195	43.5	85
1	1200	44	86
1	1205	44.5	87
1	1210	45	88
1	1215	45.5	89
1	1220	46	90
1	1225	46.5	91
1	1230	47	92
1	1235	47.5	93
1	1240	48	94
1	1245	48.5	95
1	1250	49	96
1	1255	49.5	97
1	1260	50	98
1	1265	50.5	99
1	1270	51	100
2	60	1.5	1
2	75	2	2
2	90	2.5	3
2	105	3	4
2	120	3.5	5
2	135	4	6
2	150	4.5	7
2	165	5	8
2	178	5.5	9
2	191	6	10
2	207	6.5	11
2	223	7	12
2	240	7.5	13
2	255	8.1	14
2	271	8.7	15
2	287	9.3	16
2	303	9.9	17
2	321	10.5	18
2	337	11.1	19
2	353	11.7	20
2	369	12.3	21
2	385	12.9	22
2	403	13.5	23
2	419	14.1	24
2	435	14.7	25
2	451	15.3	26
2	467	15.9	27
2	485	16.5	28
2	501	17.1	29
2	517	17.7	30
2	533	18.3	31
2	549	18.9	32
2	567	19.5	33
2	583	20.1	34
2	599	20.7	35
2	615	21.3	36
2	631	21.9	37
2	649	22.5	38
2	665	23.1	39
2	681	23.7	40
2	697	24.3	41
2	713	24.9	42
2	731	25.5	43
2	747	26.1	44
2	763	26.7	45
2	779	27.3	46
2	795	27.9	47
2	813	28.5	48
2	829	29.1	49
2	845	29.7	50
2	861	30.3	51
2	877	30.9	52
2	895	31.5	53
2	911	32.1	54
2	927	32.7	55
2	943	33.3	56
2	959	33.9	57
2	977	34.5	58
2	993	35.1	59
2	1009	35.7	60
2	1025	36.3	61
2	1041	36.9	62
2	1059	37.5	63
2	1075	38.1	64
2	1091	38.7	65
2	1107	39.3	66
2	1123	39.9	67

