version 3
run Tictoc1-0-20240121-17:42:54-14782
attr configname Tictoc1
attr datetime 20240121-17:42:54
attr datetimef 20240121-174254
attr experiment Tictoc1
attr inifile omnetpp.ini
attr iterationvars ""
attr iterationvarsd ""
attr iterationvarsf ""
attr measurement ""
attr network Tictoc1
attr processid 14782
attr repetition 0
attr replication #0
attr resultdir results
attr runnumber 0
attr seedset 0
config network Tictoc1

vector 0 Tictoc1.peer[0] HopCount ETV
vector 1 Tictoc1.peer[1] HopCount ETV
vector 2 Tictoc1.peer[2] HopCount ETV
vector 3 Tictoc1.peer[3] HopCount ETV
vector 4 Tictoc1.peer[4] HopCount ETV
vector 5 Tictoc1.peer[5] HopCount ETV
vector 6 Tictoc1.peer[6] HopCount ETV
vector 7 Tictoc1.peer[7] HopCount ETV
vector 8 Tictoc1.peer[8] HopCount ETV
vector 9 Tictoc1.peer[9] HopCount ETV
vector 10 Tictoc1.peer[10] HopCount ETV
vector 11 Tictoc1.peer[11] HopCount ETV
vector 12 Tictoc1.peer[12] HopCount ETV
vector 13 Tictoc1.peer[13] HopCount ETV
vector 14 Tictoc1.peer[14] HopCount ETV
vector 15 Tictoc1.peer[15] HopCount ETV
vector 16 Tictoc1.peer[16] HopCount ETV
vector 17 Tictoc1.peer[17] HopCount ETV
vector 18 Tictoc1.peer[18] HopCount ETV
vector 19 Tictoc1.peer[19] HopCount ETV
vector 20 Tictoc1.peer[20] HopCount ETV
vector 21 Tictoc1.peer[21] HopCount ETV
vector 22 Tictoc1.peer[23] HopCount ETV
vector 23 Tictoc1.peer[25] HopCount ETV
vector 24 Tictoc1.peer[26] HopCount ETV
vector 25 Tictoc1.peer[28] HopCount ETV
vector 26 Tictoc1.peer[29] HopCount ETV
vector 27 Tictoc1.peer[30] HopCount ETV
vector 28 Tictoc1.peer[31] HopCount ETV
vector 29 Tictoc1.peer[32] HopCount ETV
vector 30 Tictoc1.peer[38] HopCount ETV
vector 31 Tictoc1.peer[39] HopCount ETV
vector 32 Tictoc1.peer[41] HopCount ETV
vector 33 Tictoc1.peer[42] HopCount ETV
vector 34 Tictoc1.peer[43] HopCount ETV
vector 35 Tictoc1.peer[44] HopCount ETV
vector 36 Tictoc1.peer[45] HopCount ETV
vector 37 Tictoc1.peer[46] HopCount ETV
vector 38 Tictoc1.peer[47] HopCount ETV
vector 39 Tictoc1.peer[48] HopCount ETV
vector 40 Tictoc1.peer[22] HopCount ETV
vector 41 Tictoc1.peer[24] HopCount ETV
vector 42 Tictoc1.peer[27] HopCount ETV
vector 43 Tictoc1.peer[33] HopCount ETV
vector 44 Tictoc1.peer[34] HopCount ETV
vector 45 Tictoc1.peer[35] HopCount ETV
vector 46 Tictoc1.peer[36] HopCount ETV
vector 47 Tictoc1.peer[37] HopCount ETV
vector 48 Tictoc1.peer[40] HopCount ETV
vector 49 Tictoc1.peer[49] HopCount ETV
0	751	1.5	1
0	981	2	2
0	1221	2.5	3
0	1461	3	4
0	1691	3.5	5
0	1931	4	6
0	2171	4.5	7
0	2401	5	8
0	2641	5.5	9
0	2881	6	10
0	3113	6.5	11
0	3352	7	12
0	3590	7.5	13
0	3817	8	14
0	4056	8.5	15
0	4291	9	16
0	4517	9.5	17
0	4753	10	18
0	4988	10.5	19
0	5214	11	20
0	5450	11.5	21
0	5685	12	22
0	5911	12.5	23
0	6147	13	24
0	6382	13.5	25
0	6608	14	26
0	6844	14.5	27
0	7079	15	28
0	7305	15.5	29
0	7541	16	30
0	7778	16.5	31
0	8001	17	32
0	8236	17.5	33
0	8468	18	34
0	8692	18.5	35
0	8923	19	36
0	9152	19.5	37
0	9372	20	38
0	9599	20.5	39
0	9823	21	40
0	10039	21.5	41
0	10264	22	42
0	10488	22.5	43
0	10704	23	44
0	10929	23.5	45
0	11153	24	46
0	11369	24.5	47
0	11594	25	48
0	11820	25.5	49
0	12033	26	50
0	12257	26.5	51
0	12478	27	52
0	12693	27.5	53
0	12913	28	54
0	13133	28.5	55
0	13345	29	56
0	13565	29.5	57
0	13785	30	58
0	13997	30.5	59
0	14217	31	60
0	14437	31.5	61
1	752	1.5	1
1	1031	2.1	2
1	1311	2.7	3
1	1591	3.3	4
1	1871	3.9	5
1	2161	4.5	6
1	2451	5.1	7
1	2731	5.7	8
1	3013	6.3	9
1	3293	6.9	10
1	3581	7.5	11
1	3867	8.1	12
1	4144	8.7	13
1	4419	9.3	14
1	4694	9.9	15
1	4979	10.5	16
1	5263	11.1	17
1	5538	11.7	18
1	5813	12.3	19
1	6088	12.9	20
1	6373	13.5	21
1	6657	14.1	22
1	6932	14.7	23
1	7207	15.3	24
1	7482	15.9	25
1	7769	16.5	26
1	8049	17.1	27
1	8322	17.7	28
1	8594	18.3	29
1	8863	18.9	30
1	9143	19.5	31
1	9418	20.1	32
1	9681	20.7	33
1	9943	21.3	34
1	10205	21.9	35
1	10479	22.5	36
1	10749	23.1	37
1	11011	23.7	38
1	11273	24.3	39
1	11535	24.9	40
1	11811	25.5	41
1	12077	26.1	42
1	12337	26.7	43
1	12596	27.3	44
1	12854	27.9	45
1	13124	28.5	46
1	13387	29.1	47
1	13644	29.7	48
1	13901	30.3	49
1	14158	30.9	50
1	14428	31.5	51
1	14692	32.1	52
1	14947	32.7	53
1	15204	33.3	54
1	15452	33.9	55
1	15718	34.5	56
1	15969	35.1	57
1	16215	35.7	58
1	16458	36.3	59
1	16701	36.9	60
1	16960	37.5	61
1	17209	38.1	62
1	17451	38.7	63
1	17694	39.3	64
1	17931	39.9	65
1	18183	40.5	66
2	753	1.5	1
2	1032	2.1	2
2	1312	2.7	3
2	1592	3.3	4
2	1872	3.9	5
2	2162	4.5	6
2	2452	5.1	7
2	2732	5.7	8
2	3014	6.3	9
2	3294	6.9	10
2	3582	7.5	11
2	3868	8.1	12
2	4145	8.7	13
2	4420	9.3	14
2	4695	9.9	15
2	4980	10.5	16
2	5264	11.1	17
2	5539	11.7	18
2	5814	12.3	19
2	6089	12.9	20
2	6374	13.5	21
2	6658	14.1	22
2	6933	14.7	23
2	7208	15.3	24
2	7483	15.9	25
2	7770	16.5	26
2	8050	17.1	27
2	8323	17.7	28
2	8595	18.3	29
2	8864	18.9	30
2	9144	19.5	31
2	9419	20.1	32
2	9682	20.7	33
2	9944	21.3	34
2	10206	21.9	35
2	10480	22.5	36
2	10750	23.1	37
2	11012	23.7	38
2	11274	24.3	39
2	11536	24.9	40
2	11812	25.5	41
2	12078	26.1	42
2	12338	26.7	43
2	12597	27.3	44
2	12855	27.9	45
2	13125	28.5	46
2	13388	29.1	47
2	13645	29.7	48
2	13902	30.3	49
2	14159	30.9	50
2	14429	31.5	51
2	14693	32.1	52
2	14948	32.7	53
2	15205	33.3	54
2	15453	33.9	55
2	15719	34.5	56
2	15970	35.1	57
2	16216	35.7	58
2	16459	36.3	59
2	16702	36.9	60
2	16961	37.5	61
2	17210	38.1	62
2	17452	38.7	63
2	17695	39.3	64
2	17932	39.9	65
2	18184	40.5	66
2	18418	41.1	67
2	18651	41.7	68
2	18879	42.3	69
2	19101	42.9	70
2	19341	43.5	71
2	19555	44.1	72
2	19765	44.7	73
2	20046	45.5	74
2	20311	46.3	75
2	20593	47.1	76
2	20857	47.9	77
2	21139	48.7	78
2	21418	49.5	79
2	21685	50.3	80
2	21967	51.1	81
2	22156	51.9	82
2	22317	52.7	83
2	22459	53.5	84
2	22563	54.3	85
2	22676	55.1	86
2	22769	55.9	87
2	22877	56.7	88
2	22983	57.5	89
2	23077	58.3	90
2	23177	59.1	91
2	23262	59.9	92
2	23351	60.7	93
2	23421	61.5	94
2	23458	62.3	95
2	23500	63.1	96
2	23534	63.9	97
2	23570	64.7	98
2	23598	65.5	99
2	23625	66.3	100
3	754	1.5	1
3	1033	2.1	2
3	1313	2.7	3
3	1593	3.3	4
3	1873	3.9	5
3	2163	4.5	6
3	2453	5.1	7
3	2733	5.7	8
3	3015	6.3	9
3	3295	6.9	10
3	3583	7.5	11
3	3869	8.1	12
3	4146	8.7	13
3	4421	9.3	14
3	4696	9.9	15
3	4981	10.5	16
3	5265	11.1	17
3	5540	11.7	18
3	5815	12.3	19
3	6090	12.9	20
3	6375	13.5	21
3	6659	14.1	22
3	6934	14.7	23
3	7209	15.3	24
3	7484	15.9	25
3	7771	16.5	26
3	8051	17.1	27
3	8324	17.7	28
3	8596	18.3	29
3	8865	18.9	30
3	9145	19.5	31
3	9420	20.1	32
3	9683	20.7	33
3	9945	21.3	34
3	10207	21.9	35
3	10481	22.5	36
3	10751	23.1	37
3	11013	23.7	38
3	11275	24.3	39
3	11537	24.9	40
3	11813	25.5	41
3	12079	26.1	42
3	12339	26.7	43
3	12598	27.3	44
3	12856	27.9	45
3	13126	28.5	46
3	13389	29.1	47
3	13646	29.7	48
3	13903	30.3	49
3	14160	30.9	50
3	14430	31.5	51
3	14694	32.1	52
3	14949	32.7	53
3	15206	33.3	54
3	15454	33.9	55
3	15720	34.5	56
3	15971	35.1	57
3	16217	35.7	58
3	16460	36.3	59
3	16703	36.9	60
3	16962	37.5	61
3	17211	38.1	62
3	17453	38.7	63
3	17696	39.3	64
3	17933	39.9	65
3	18185	40.5	66
3	18419	41.1	67
3	18652	41.7	68
3	18880	42.3	69
3	19102	42.9	70
3	19342	43.5	71
3	19556	44.1	72
3	19766	44.7	73
3	19965	45.3	74
3	20169	45.9	75
3	20387	46.5	76
3	20594	47.1	77
3	20793	47.7	78
3	20997	48.3	79
3	21198	48.9	80
3	21419	49.5	81
3	21621	50.1	82
3	21825	50.7	83
3	22027	51.3	84
3	22157	51.9	85
3	22282	52.5	86
3	22392	53.1	87
3	22483	53.7	88
3	22564	54.3	89
3	22637	54.9	90
3	22724	55.5	91
3	22802	56.1	92
3	22878	56.7	93
3	22950	57.3	94
3	23022	57.9	95
3	23103	58.5	96
3	23178	59.1	97
3	23244	59.7	98
3	23307	60.3	99
3	23363	60.9	100
4	755	1.5	1
4	1034	2.1	2
4	1314	2.7	3
4	1594	3.3	4
4	1874	3.9	5
4	2164	4.5	6
4	2454	5.1	7
4	2734	5.7	8
4	3016	6.3	9
4	3296	6.9	10
4	3584	7.5	11
4	3870	8.1	12
4	4147	8.7	13
4	4422	9.3	14
4	4697	9.9	15
4	4982	10.5	16
4	5266	11.1	17
4	5541	11.7	18
4	5816	12.3	19
4	6091	12.9	20
4	6376	13.5	21
4	6660	14.1	22
4	6935	14.7	23
4	7210	15.3	24
4	7485	15.9	25
4	7772	16.5	26
4	8052	17.1	27
4	8325	17.7	28
4	8597	18.3	29
4	8866	18.9	30
4	9146	19.5	31
4	9421	20.1	32
4	9684	20.7	33
4	9946	21.3	34
4	10208	21.9	35
4	10482	22.5	36
4	10752	23.1	37
4	11014	23.7	38
4	11276	24.3	39
4	11538	24.9	40
4	11814	25.5	41
4	12080	26.1	42
4	12340	26.7	43
4	12599	27.3	44
4	12857	27.9	45
4	13127	28.5	46
4	13390	29.1	47
4	13647	29.7	48
4	13904	30.3	49
4	14161	30.9	50
4	14431	31.5	51
4	14695	32.1	52
4	14950	32.7	53
4	15207	33.3	54
4	15455	33.9	55
4	15721	34.5	56
4	15972	35.1	57
4	16218	35.7	58
4	16461	36.3	59
4	16704	36.9	60
4	16963	37.5	61
4	17212	38.1	62
4	17454	38.7	63
4	17697	39.3	64
4	17934	39.9	65
4	18186	40.5	66
4	18420	41.1	67
4	18653	41.7	68
4	18881	42.3	69
4	19103	42.9	70
4	19343	43.5	71
4	19557	44.1	72
4	19767	44.7	73
4	19966	45.3	74
4	20170	45.9	75
4	20388	46.5	76
4	20595	47.1	77
4	20794	47.7	78
4	20998	48.3	79
4	21199	48.9	80
4	21420	49.5	81
4	21622	50.1	82
4	21826	50.7	83
4	22028	51.3	84
4	22158	51.9	85
4	22283	52.5	86
4	22393	53.1	87
4	22484	53.7	88
4	22565	54.3	89
4	22638	54.9	90
4	22725	55.5	91
4	22803	56.1	92
4	22879	56.7	93
4	22951	57.3	94
4	23023	57.9	95
4	23104	58.5	96
4	23179	59.1	97
4	23245	59.7	98
4	23308	60.3	99
4	23364	60.9	100
5	756	1.5	1
5	1035	2.1	2
5	1315	2.7	3
5	1595	3.3	4
5	1875	3.9	5
5	2165	4.5	6
5	2455	5.1	7
5	2735	5.7	8
5	3017	6.3	9
5	3297	6.9	10
5	3585	7.5	11
5	3871	8.1	12
5	4148	8.7	13
5	4423	9.3	14
5	4698	9.9	15
5	4983	10.5	16
5	5267	11.1	17
5	5542	11.7	18
5	5817	12.3	19
5	6092	12.9	20
5	6377	13.5	21
5	6661	14.1	22
5	6936	14.7	23
5	7211	15.3	24
5	7486	15.9	25
5	7773	16.5	26
5	8053	17.1	27
5	8326	17.7	28
5	8598	18.3	29
5	8867	18.9	30
5	9147	19.5	31
5	9422	20.1	32
5	9685	20.7	33
5	9947	21.3	34
5	10209	21.9	35
5	10483	22.5	36
5	10753	23.1	37
5	11015	23.7	38
5	11277	24.3	39
5	11539	24.9	40
5	11815	25.5	41
5	12081	26.1	42
5	12341	26.7	43
5	12600	27.3	44
5	12858	27.9	45
5	13128	28.5	46
5	13391	29.1	47
5	13648	29.7	48
5	13905	30.3	49
5	14162	30.9	50
5	14432	31.5	51
5	14696	32.1	52
5	14951	32.7	53
5	15208	33.3	54
5	15456	33.9	55
5	15722	34.5	56
5	15973	35.1	57
5	16219	35.7	58
5	16462	36.3	59
5	16705	36.9	60
5	16964	37.5	61
5	17213	38.1	62
5	17455	38.7	63
5	17698	39.3	64
5	17935	39.9	65
5	18187	40.5	66
5	18421	41.1	67
5	19447	43.8	68
5	19656	44.4	69
5	19877	45	70
5	20082	45.6	71
5	20285	46.2	72
5	20487	46.8	73
5	20688	47.4	74
5	20907	48	75
5	21113	48.6	76
5	21315	49.2	77
5	21516	49.8	78
5	21718	50.4	79
5	21938	51	80
5	22114	51.6	81
5	22226	52.2	82
5	22334	52.8	83
5	22437	53.4	84
5	22531	54	85
5	22613	54.6	86
5	22687	55.2	87
5	22762	55.8	88
5	22836	56.4	89
5	22920	57	90
5	22996	57.6	91
5	23069	58.2	92
5	23139	58.8	93
5	23208	59.4	94
5	23299	60.2	95
5	23379	61	96
5	23432	61.8	97
5	23474	62.6	98
5	23509	63.4	99
5	23547	64.2	100
6	757	1.5	1
6	982	2	2
6	1222	2.5	3
6	1462	3	4
6	1692	3.5	5
6	1932	4	6
6	2172	4.5	7
6	2402	5	8
6	2642	5.5	9
6	2882	6	10
6	3114	6.5	11
6	3353	7	12
6	3591	7.5	13
6	3818	8	14
6	4057	8.5	15
6	4292	9	16
6	4518	9.5	17
6	4754	10	18
6	4989	10.5	19
6	5215	11	20
6	5451	11.5	21
6	5686	12	22
6	5912	12.5	23
6	6148	13	24
6	6383	13.5	25
6	6609	14	26
6	6845	14.5	27
6	7080	15	28
6	7306	15.5	29
6	7542	16	30
6	7779	16.5	31
6	8002	17	32
6	8237	17.5	33
6	8469	18	34
6	8693	18.5	35
6	8924	19	36
6	9153	19.5	37
6	9373	20	38
6	9600	20.5	39
6	9824	21	40
6	10040	21.5	41
6	10265	22	42
6	10489	22.5	43
6	10705	23	44
6	10930	23.5	45
6	11154	24	46
6	11370	24.5	47
6	11595	25	48
6	11821	25.5	49
6	12034	26	50
6	12258	26.5	51
6	12479	27	52
6	12694	27.5	53
6	12914	28	54
6	13134	28.5	55
6	13346	29	56
6	13566	29.5	57
6	13786	30	58
6	13998	30.5	59
6	14218	31	60
6	14438	31.5	61
6	14650	32	62
6	14870	32.5	63
6	15087	33	64
6	15298	33.5	65
6	15511	34	66
6	15727	34.5	67
6	15930	35	68
6	16142	35.5	69
6	16352	36	70
6	16552	36.5	71
6	16761	37	72
6	16970	37.5	73
6	17170	38	74
6	17379	38.5	75
6	17587	39	76
6	17789	39.5	77
6	17990	40	78
6	18193	40.5	79
6	18382	41	80
6	18584	41.5	81
6	18777	42	82
6	18963	42.5	83
6	19156	43	84
6	19348	43.5	85
6	19523	44	86
6	19701	44.5	87
6	19878	45	88
6	20048	45.5	89
6	20220	46	90
6	20393	46.5	91
6	20562	47	92
6	20735	47.5	93
6	20908	48	94
6	21075	48.5	95
6	21249	49	96
6	21425	49.5	97
6	21592	50	98
6	21764	50.5	99
6	21939	51	100
7	758	1.5	1
7	1036	2.1	2
7	1316	2.7	3
7	1596	3.3	4
7	1876	3.9	5
7	2166	4.5	6
7	2456	5.1	7
7	2736	5.7	8
7	3018	6.3	9
7	3298	6.9	10
7	3586	7.5	11
7	3872	8.1	12
7	4149	8.7	13
7	4424	9.3	14
7	4699	9.9	15
7	4984	10.5	16
7	5268	11.1	17
7	5543	11.7	18
7	5818	12.3	19
7	6093	12.9	20
7	6378	13.5	21
7	6662	14.1	22
7	6937	14.7	23
7	7212	15.3	24
7	7487	15.9	25
7	7774	16.5	26
7	8054	17.1	27
7	8327	17.7	28
7	8599	18.3	29
7	8868	18.9	30
7	9148	19.5	31
7	9423	20.1	32
7	9686	20.7	33
7	9948	21.3	34
7	10210	21.9	35
7	10484	22.5	36
7	10754	23.1	37
7	11016	23.7	38
7	11278	24.3	39
7	11540	24.9	40
7	11816	25.5	41
7	12082	26.1	42
7	12342	26.7	43
7	12601	27.3	44
7	12859	27.9	45
7	13129	28.5	46
7	13392	29.1	47
7	13649	29.7	48
7	13906	30.3	49
7	14163	30.9	50
7	14433	31.5	51
7	14697	32.1	52
7	14952	32.7	53
7	15209	33.3	54
7	15457	33.9	55
7	15723	34.5	56
7	15974	35.1	57
7	16220	35.7	58
7	16463	36.3	59
7	16706	36.9	60
7	16965	37.5	61
7	17214	38.1	62
7	17456	38.7	63
7	17699	39.3	64
7	17936	39.9	65
7	18188	40.5	66
7	18422	41.1	67
7	18654	41.7	68
7	18882	42.3	69
7	19104	42.9	70
7	19344	43.5	71
7	19558	44.1	72
7	19768	44.7	73
7	19967	45.3	74
7	20171	45.9	75
7	20389	46.5	76
7	20596	47.1	77
7	20795	47.7	78
7	20999	48.3	79
7	21200	48.9	80
7	21421	49.5	81
7	21623	50.1	82
7	21827	50.7	83
7	22029	51.3	84
7	22159	51.9	85
7	22284	52.5	86
7	22394	53.1	87
7	22485	53.7	88
7	22566	54.3	89
7	22639	54.9	90
7	22726	55.5	91
7	22804	56.1	92
7	22880	56.7	93
7	22952	57.3	94
7	23024	57.9	95
7	23105	58.5	96
7	23180	59.1	97
7	23246	59.7	98
7	23309	60.3	99
7	23365	60.9	100
8	759	1.5	1
8	1037	2.1	2
8	1317	2.7	3
8	1597	3.3	4
8	1877	3.9	5
8	2167	4.5	6
8	2457	5.1	7
8	2737	5.7	8
8	3019	6.3	9
8	3299	6.9	10
8	3587	7.5	11
8	3873	8.1	12
8	4150	8.7	13
8	4425	9.3	14
8	4700	9.9	15
8	4985	10.5	16
8	5269	11.1	17
8	5544	11.7	18
8	5819	12.3	19
8	6094	12.9	20
8	6379	13.5	21
8	6663	14.1	22
8	6938	14.7	23
8	7213	15.3	24
8	7488	15.9	25
8	7775	16.5	26
8	8055	17.1	27
8	8328	17.7	28
8	8600	18.3	29
8	8869	18.9	30
8	9149	19.5	31
8	9424	20.1	32
8	9687	20.7	33
8	9949	21.3	34
8	10211	21.9	35
8	10485	22.5	36
8	10755	23.1	37
8	11017	23.7	38
8	11279	24.3	39
8	11541	24.9	40
8	11817	25.5	41
8	12083	26.1	42
8	12343	26.7	43
8	12602	27.3	44
8	12860	27.9	45
8	13130	28.5	46
8	13393	29.1	47
8	13650	29.7	48
8	13907	30.3	49
8	14164	30.9	50
8	14434	31.5	51
8	14698	32.1	52
8	14953	32.7	53
8	15210	33.3	54
8	15458	33.9	55
8	15724	34.5	56
8	15975	35.1	57
8	16221	35.7	58
8	16464	36.3	59
8	16707	36.9	60
8	16966	37.5	61
8	17215	38.1	62
8	17457	38.7	63
8	17700	39.3	64
8	17937	39.9	65
8	18189	40.5	66
8	18423	41.1	67
8	18655	41.7	68
8	18883	42.3	69
8	19938	45.2	70
8	20216	46	71
8	20486	46.8	72
8	20766	47.6	73
8	21027	48.4	74
8	21314	49.2	75
8	21591	50	76
8	21855	50.8	77
8	22113	51.6	78
8	22254	52.4	79
8	22406	53.2	80
8	22530	54	81
8	22631	54.8	82
8	22738	55.6	83
8	22835	56.4	84
8	22943	57.2	85
8	23041	58	86
8	23138	58.8	87
8	23238	59.6	88
8	23314	60.4	89
8	23404	61.2	90
8	23446	62	91
8	23483	62.8	92
8	23525	63.6	93
8	23555	64.4	94
8	23587	65.2	95
8	23615	66	96
8	23642	66.8	97
8	23660	67.6	98
8	23670	68.4	99
8	23682	69.2	100
9	760	1.5	1
9	1038	2.1	2
9	1318	2.7	3
9	1598	3.3	4
9	1878	3.9	5
9	2168	4.5	6
9	2458	5.1	7
9	2738	5.7	8
9	3020	6.3	9
9	3300	6.9	10
9	3588	7.5	11
9	3874	8.1	12
9	4151	8.7	13
9	4426	9.3	14
9	4701	9.9	15
9	4986	10.5	16
9	5270	11.1	17
9	5545	11.7	18
9	5820	12.3	19
9	6095	12.9	20
9	6380	13.5	21
9	6664	14.1	22
9	6939	14.7	23
9	7214	15.3	24
9	7489	15.9	25
9	7776	16.5	26
9	8056	17.1	27
9	8329	17.7	28
9	8601	18.3	29
9	8870	18.9	30
9	9150	19.5	31
9	9425	20.1	32
9	9688	20.7	33
9	9950	21.3	34
9	10212	21.9	35
9	10486	22.5	36
9	10756	23.1	37
9	11018	23.7	38
9	11280	24.3	39
9	11542	24.9	40
9	11818	25.5	41
9	12084	26.1	42
9	12344	26.7	43
9	12603	27.3	44
9	12861	27.9	45
9	13131	28.5	46
9	13394	29.1	47
9	13651	29.7	48
9	13908	30.3	49
9	14165	30.9	50
9	14435	31.5	51
9	14699	32.1	52
9	14954	32.7	53
9	15211	33.3	54
9	15459	33.9	55
9	15725	34.5	56
9	15976	35.1	57
9	16222	35.7	58
9	16465	36.3	59
9	16708	36.9	60
9	16967	37.5	61
9	17216	38.1	62
9	17458	38.7	63
9	17701	39.3	64
9	17938	39.9	65
9	18190	40.5	66
9	18424	41.1	67
9	18656	41.7	68
9	18884	42.3	69
9	19105	42.9	70
9	19345	43.5	71
9	19620	44.3	72
9	19906	45.1	73
9	20168	45.9	74
9	20452	46.7	75
9	20731	47.5	76
9	20996	48.3	77
9	21280	49.1	78
9	21542	49.9	79
9	21824	50.7	80
9	22092	51.5	81
9	22237	52.3	82
9	22391	53.1	83
9	22505	53.9	84
9	22620	54.7	85
9	22723	55.5	86
9	22823	56.3	87
9	22932	57.1	88
9	23021	57.9	89
9	23127	58.7	90
9	23226	59.5	91
9	23306	60.3	92
9	23394	61.1	93
9	23437	61.9	94
9	23479	62.7	95
9	23519	63.5	96
9	23551	64.3	97
9	23584	65.1	98
9	23609	65.9	99
9	23639	66.7	100
10	761	1.5	1
10	983	2	2
10	1223	2.5	3
10	1463	3	4
10	1693	3.5	5
10	1933	4	6
10	2173	4.5	7
10	2403	5	8
10	2643	5.5	9
10	2883	6	10
10	3115	6.5	11
10	3354	7	12
10	3592	7.5	13
10	3819	8	14
10	4058	8.5	15
10	4293	9	16
10	4519	9.5	17
10	4755	10	18
10	4990	10.5	19
10	5216	11	20
10	5452	11.5	21
10	5687	12	22
10	5913	12.5	23
10	6149	13	24
10	6384	13.5	25
10	6610	14	26
10	6846	14.5	27
10	7081	15	28
10	7307	15.5	29
10	7543	16	30
10	7780	16.5	31
10	8003	17	32
10	8238	17.5	33
10	8470	18	34
10	8694	18.5	35
10	8925	19	36
10	9154	19.5	37
10	9374	20	38
10	9601	20.5	39
10	9825	21	40
10	10041	21.5	41
10	10266	22	42
10	10490	22.5	43
10	10706	23	44
10	10931	23.5	45
10	11155	24	46
10	11371	24.5	47
10	11596	25	48
10	11822	25.5	49
10	12035	26	50
10	12259	26.5	51
10	12480	27	52
10	12695	27.5	53
10	12915	28	54
10	13135	28.5	55
10	13347	29	56
10	13567	29.5	57
10	13787	30	58
10	13999	30.5	59
10	14219	31	60
10	14439	31.5	61
10	14651	32	62
10	15769	34.6	63
10	15980	35.1	64
10	16184	35.6	65
10	16393	36.1	66
10	16602	36.6	67
10	16802	37.1	68
10	17011	37.6	69
10	17221	38.1	70
10	17420	38.6	71
10	17628	39.1	72
10	18688	41.8	73
11	762	1.5	1
11	1039	2.1	2
11	1319	2.7	3
11	1599	3.3	4
11	1879	3.9	5
11	2169	4.5	6
11	2459	5.1	7
11	2739	5.7	8
12	763	1.5	1
12	984	2	2
12	1224	2.5	3
12	1464	3	4
12	1694	3.5	5
12	1934	4	6
12	2174	4.5	7
12	2404	5	8
12	2644	5.5	9
12	2884	6	10
12	3116	6.5	11
12	3355	7	12
12	3593	7.5	13
12	3820	8	14
12	4059	8.5	15
12	4294	9	16
12	4520	9.5	17
12	4756	10	18
12	4991	10.5	19
12	5217	11	20
12	5453	11.5	21
12	5688	12	22
12	5914	12.5	23
12	6150	13	24
12	6385	13.5	25
12	6611	14	26
12	6847	14.5	27
12	7082	15	28
12	7308	15.5	29
12	7544	16	30
12	7781	16.5	31
12	8004	17	32
12	8239	17.5	33
12	8471	18	34
12	8695	18.5	35
12	8926	19	36
12	9155	19.5	37
12	9375	20	38
12	9602	20.5	39
12	9826	21	40
12	10042	21.5	41
12	10267	22	42
12	10491	22.5	43
12	10707	23	44
12	10932	23.5	45
12	11156	24	46
12	11372	24.5	47
12	11597	25	48
12	11823	25.5	49
12	12036	26	50
12	12260	26.5	51
12	12481	27	52
12	12696	27.5	53
12	12916	28	54
12	13136	28.5	55
12	13348	29	56
12	13568	29.5	57
12	13788	30	58
12	14000	30.5	59
12	14220	31	60
12	14440	31.5	61
12	14652	32	62
12	14871	32.5	63
12	15088	33	64
12	15299	33.5	65
12	15512	34	66
12	15728	34.5	67
12	15931	35	68
12	16143	35.5	69
12	16353	36	70
12	16553	36.5	71
12	16762	37	72
12	16971	37.5	73
12	17171	38	74
12	17380	38.5	75
12	17588	39	76
12	17790	39.5	77
12	17991	40	78
12	18194	40.5	79
12	18383	41	80
12	18585	41.5	81
12	18778	42	82
12	18964	42.5	83
12	19157	43	84
12	19349	43.5	85
12	19524	44	86
12	19702	44.5	87
12	19879	45	88
12	20049	45.5	89
12	20221	46	90
12	20394	46.5	91
12	20563	47	92
12	20736	47.5	93
12	20909	48	94
12	21076	48.5	95
12	21250	49	96
12	21426	49.5	97
12	21593	50	98
12	21765	50.5	99
12	21940	51	100
13	764	1.5	1
13	985	2	2
13	1225	2.5	3
13	1465	3	4
13	1695	3.5	5
13	1935	4	6
13	2175	4.5	7
13	2405	5	8
13	2645	5.5	9
13	2885	6	10
13	3117	6.5	11
13	3356	7	12
13	3594	7.5	13
13	3821	8	14
13	4060	8.5	15
13	4295	9	16
13	4521	9.5	17
13	4757	10	18
13	4992	10.5	19
13	5218	11	20
13	5454	11.5	21
13	5689	12	22
13	5915	12.5	23
13	6151	13	24
13	6386	13.5	25
13	6612	14	26
13	6848	14.5	27
13	7083	15	28
13	7309	15.5	29
13	7545	16	30
13	8786	18.7	31
13	9056	19.3	32
13	9321	19.9	33
13	9598	20.5	34
13	9868	21.1	35
13	10130	21.7	36
13	10392	22.3	37
13	10654	22.9	38
13	10928	23.5	39
13	11198	24.1	40
13	11460	24.7	41
13	11723	25.3	42
13	11982	25.9	43
13	12256	26.5	44
13	12521	27.1	45
13	12780	27.7	46
13	13037	28.3	47
13	13294	28.9	48
13	13564	29.5	49
13	13827	30.1	50
13	14084	30.7	51
13	14341	31.3	52
13	14598	31.9	53
13	14869	32.5	54
13	15130	33.1	55
13	15381	33.7	56
13	15632	34.3	57
13	15879	34.9	58
13	16141	35.5	59
13	16389	36.1	60
13	16632	36.7	61
13	16875	37.3	62
13	17118	37.9	63
13	17377	38.5	64
13	17624	39.1	65
13	17865	39.7	66
13	18101	40.3	67
13	18330	40.9	68
13	18582	41.5	69
13	18811	42.1	70
13	19037	42.7	71
13	19258	43.3	72
13	19473	43.9	73
13	19698	44.5	74
13	19907	45.1	75
13	20108	45.7	76
13	20312	46.3	77
13	20511	46.9	78
13	20732	47.5	79
13	20936	48.1	80
13	21140	48.7	81
13	21339	49.3	82
13	21543	49.9	83
13	21761	50.5	84
13	21968	51.1	85
13	22124	51.7	86
13	22238	52.3	87
13	22344	52.9	88
13	22460	53.5	89
13	22541	54.1	90
13	22621	54.7	91
13	22694	55.3	92
13	22770	55.9	93
13	22852	56.5	94
13	22933	57.1	95
13	23281	60	96
13	23357	60.8	97
13	23425	61.6	98
13	23460	62.4	99
13	23502	63.2	100
14	765	1.5	1
14	986	2	2
14	1226	2.5	3
14	1466	3	4
14	1696	3.5	5
14	1936	4	6
14	2176	4.5	7
14	2406	5	8
14	2646	5.5	9
14	2886	6	10
14	3118	6.5	11
14	3357	7	12
14	3595	7.5	13
14	3822	8	14
14	4061	8.5	15
14	4296	9	16
14	4522	9.5	17
14	4758	10	18
14	4993	10.5	19
14	5219	11	20
14	5455	11.5	21
14	5690	12	22
14	5916	12.5	23
14	6152	13	24
14	6387	13.5	25
14	6613	14	26
14	6849	14.5	27
14	7084	15	28
14	7310	15.5	29
14	7546	16	30
14	7782	16.5	31
14	8005	17	32
14	8240	17.5	33
14	8472	18	34
14	8696	18.5	35
14	8927	19	36
14	9156	19.5	37
14	9376	20	38
14	9603	20.5	39
14	9827	21	40
14	10043	21.5	41
14	10268	22	42
14	10492	22.5	43
14	10708	23	44
14	10933	23.5	45
14	11157	24	46
14	11373	24.5	47
14	11598	25	48
14	11824	25.5	49
14	12037	26	50
14	12261	26.5	51
14	12482	27	52
14	12697	27.5	53
14	12917	28	54
14	13137	28.5	55
14	13349	29	56
14	13569	29.5	57
14	13789	30	58
14	14001	30.5	59
14	14221	31	60
14	14441	31.5	61
14	14653	32	62
14	14872	32.5	63
14	15089	33	64
14	15300	33.5	65
14	15513	34	66
14	15729	34.5	67
14	15932	35	68
14	16144	35.5	69
14	16354	36	70
14	16554	36.5	71
14	16763	37	72
14	16972	37.5	73
14	17172	38	74
14	17381	38.5	75
14	17589	39	76
14	17791	39.5	77
14	17992	40	78
14	18195	40.5	79
14	18384	41	80
14	18586	41.5	81
14	18779	42	82
14	18965	42.5	83
14	19158	43	84
14	19350	43.5	85
14	19525	44	86
14	19703	44.5	87
14	19880	45	88
14	20050	45.5	89
14	20222	46	90
14	20395	46.5	91
14	20564	47	92
14	20737	47.5	93
14	20910	48	94
14	21077	48.5	95
14	21251	49	96
14	21427	49.5	97
14	21594	50	98
14	21766	50.5	99
14	21941	51	100
15	766	1.5	1
15	987	2	2
15	1227	2.5	3
15	1467	3	4
15	1697	3.5	5
15	1937	4	6
15	2177	4.5	7
15	2407	5	8
15	2647	5.5	9
15	2887	6	10
15	3119	6.5	11
15	3358	7	12
15	3596	7.5	13
15	3823	8	14
15	4062	8.5	15
15	4297	9	16
15	4523	9.5	17
15	4759	10	18
15	4994	10.5	19
15	5220	11	20
15	5456	11.5	21
15	5691	12	22
15	5917	12.5	23
15	6153	13	24
15	6388	13.5	25
15	6614	14	26
15	6850	14.5	27
15	7085	15	28
15	7311	15.5	29
15	7547	16	30
15	7783	16.5	31
15	8006	17	32
15	8241	17.5	33
15	8473	18	34
15	8697	18.5	35
15	8928	19	36
15	9157	19.5	37
15	9377	20	38
15	9604	20.5	39
15	9828	21	40
15	10044	21.5	41
15	10269	22	42
15	10493	22.5	43
15	10709	23	44
15	10934	23.5	45
15	11158	24	46
15	11374	24.5	47
15	11599	25	48
15	11825	25.5	49
15	12038	26	50
15	12262	26.5	51
15	12483	27	52
15	12698	27.5	53
15	12918	28	54
15	13138	28.5	55
15	13350	29	56
15	13570	29.5	57
15	13790	30	58
15	14002	30.5	59
15	14222	31	60
15	14442	31.5	61
15	14654	32	62
15	14873	32.5	63
15	15090	33	64
15	15301	33.5	65
15	15514	34	66
15	15730	34.5	67
15	15933	35	68
15	16145	35.5	69
15	16355	36	70
15	16555	36.5	71
15	16764	37	72
15	16973	37.5	73
15	17173	38	74
15	17382	38.5	75
15	17590	39	76
15	17792	39.5	77
15	17993	40	78
15	18196	40.5	79
15	18385	41	80
15	18587	41.5	81
15	18780	42	82
15	18966	42.5	83
15	19159	43	84
15	19351	43.5	85
15	19526	44	86
15	19704	44.5	87
15	19881	45	88
15	20051	45.5	89
15	20223	46	90
15	20396	46.5	91
15	20565	47	92
15	20738	47.5	93
15	20911	48	94
15	21078	48.5	95
15	21252	49	96
15	21428	49.5	97
15	21595	50	98
15	21767	50.5	99
15	21942	51	100
16	767	1.5	1
16	988	2	2
16	1228	2.5	3
16	1468	3	4
16	1698	3.5	5
16	1938	4	6
16	2178	4.5	7
16	2408	5	8
16	2648	5.5	9
16	2888	6	10
16	3120	6.5	11
16	3359	7	12
16	3597	7.5	13
16	3824	8	14
16	4063	8.5	15
16	4298	9	16
16	4524	9.5	17
16	4760	10	18
16	4995	10.5	19
16	5221	11	20
16	5457	11.5	21
16	5692	12	22
16	5918	12.5	23
16	6154	13	24
16	6389	13.5	25
16	6615	14	26
16	6851	14.5	27
16	7086	15	28
16	7312	15.5	29
16	7548	16	30
16	7784	16.5	31
16	8007	17	32
16	8242	17.5	33
16	8474	18	34
16	8698	18.5	35
16	8969	19.1	36
16	9236	19.7	37
16	9502	20.3	38
16	9764	20.9	39
16	10038	21.5	40
16	10308	22.1	41
16	10570	22.7	42
16	10832	23.3	43
16	11094	23.9	44
16	11368	24.5	45
16	11638	25.1	46
16	11899	25.7	47
16	12161	26.3	48
16	12419	26.9	49
16	12692	27.5	50
16	12955	28.1	51
16	13212	28.7	52
16	13469	29.3	53
16	13726	29.9	54
16	13996	30.5	55
16	14259	31.1	56
16	14516	31.7	57
16	14775	32.3	58
16	15028	32.9	59
16	15297	33.5	60
16	15552	34.1	61
16	15801	34.7	62
16	16048	35.3	63
16	16292	35.9	64
16	16551	36.5	65
16	16799	37.1	66
16	17042	37.7	67
16	17287	38.3	68
16	17527	38.9	69
16	17788	39.5	70
16	18027	40.1	71
16	18260	40.7	72
16	18492	41.3	73
16	18719	41.9	74
16	18962	42.5	75
16	19191	43.1	76
16	19411	43.7	77
16	19621	44.3	78
16	19826	44.9	79
16	20047	45.5	80
16	20249	46.1	81
16	20453	46.7	82
16	20654	47.3	83
16	20858	47.9	84
16	21074	48.5	85
16	21281	49.1	86
16	21482	49.7	87
16	21686	50.3	88
16	21885	50.9	89
16	22093	51.5	90
16	22207	52.1	91
16	22318	52.7	92
16	22419	53.3	93
16	22506	53.9	94
16	22596	54.5	95
16	22677	55.1	96
16	22748	55.7	97
16	22824	56.3	98
16	22897	56.9	99
16	23252	59.8	100
17	768	1.5	1
17	1040	2.1	2
17	1320	2.7	3
17	1600	3.3	4
17	1880	3.9	5
17	2170	4.5	6
17	2460	5.1	7
17	2740	5.7	8
17	3022	6.3	9
17	3301	6.9	10
17	3589	7.5	11
17	3875	8.1	12
17	4152	8.7	13
17	4427	9.3	14
17	4702	9.9	15
17	4987	10.5	16
17	5271	11.1	17
17	5546	11.7	18
17	5821	12.3	19
17	6096	12.9	20
17	6381	13.5	21
17	6665	14.1	22
17	6940	14.7	23
17	7215	15.3	24
17	7490	15.9	25
17	7777	16.5	26
17	8057	17.1	27
17	8330	17.7	28
17	8602	18.3	29
17	8871	18.9	30
17	9151	19.5	31
17	9426	20.1	32
17	9689	20.7	33
17	9951	21.3	34
17	10213	21.9	35
17	10487	22.5	36
17	10757	23.1	37
17	11019	23.7	38
17	11281	24.3	39
17	11543	24.9	40
17	11819	25.5	41
17	12085	26.1	42
17	12345	26.7	43
17	12604	27.3	44
17	12862	27.9	45
17	13132	28.5	46
17	13395	29.1	47
17	13652	29.7	48
17	13909	30.3	49
17	14166	30.9	50
17	14436	31.5	51
17	14700	32.1	52
17	14955	32.7	53
17	15212	33.3	54
17	15460	33.9	55
17	15726	34.5	56
17	15977	35.1	57
17	16223	35.7	58
17	16466	36.3	59
17	16709	36.9	60
17	16968	37.5	61
17	17217	38.1	62
17	17459	38.7	63
17	17702	39.3	64
17	17939	39.9	65
17	18191	40.5	66
17	18425	41.1	67
17	18657	41.7	68
17	18885	42.3	69
17	19106	42.9	70
17	19346	43.5	71
17	19559	44.1	72
17	19769	44.7	73
17	19968	45.3	74
17	20172	45.9	75
17	20390	46.5	76
17	20597	47.1	77
17	20796	47.7	78
17	21000	48.3	79
17	21201	48.9	80
17	21422	49.5	81
17	21624	50.1	82
17	21828	50.7	83
17	22030	51.3	84
17	22160	51.9	85
17	22285	52.5	86
17	22395	53.1	87
17	22486	53.7	88
17	22567	54.3	89
17	22640	54.9	90
17	22727	55.5	91
17	22805	56.1	92
17	22881	56.7	93
17	22953	57.3	94
17	23025	57.9	95
17	23106	58.5	96
17	23181	59.1	97
17	23247	59.7	98
17	23310	60.3	99
17	23366	60.9	100
18	769	1.5	1
18	989	2	2
18	1229	2.5	3
18	1469	3	4
18	1699	3.5	5
18	1939	4	6
18	2179	4.5	7
18	2409	5	8
18	2649	5.5	9
18	2889	6	10
18	3121	6.5	11
18	3360	7	12
18	3598	7.5	13
18	3825	8	14
18	4064	8.5	15
18	4299	9	16
18	4525	9.5	17
18	4761	10	18
18	4996	10.5	19
18	5222	11	20
18	5458	11.5	21
18	5693	12	22
18	5919	12.5	23
18	6155	13	24
18	6390	13.5	25
18	6616	14	26
18	6852	14.5	27
18	7087	15	28
18	7313	15.5	29
18	7549	16	30
18	7785	16.5	31
18	8008	17	32
18	8243	17.5	33
18	8475	18	34
18	8699	18.5	35
18	8929	19	36
18	9158	19.5	37
18	9378	20	38
18	9605	20.5	39
18	9829	21	40
18	10045	21.5	41
18	10270	22	42
18	10494	22.5	43
18	10710	23	44
18	10935	23.5	45
18	11159	24	46
18	11375	24.5	47
18	11600	25	48
18	11826	25.5	49
18	12039	26	50
18	12263	26.5	51
18	12484	27	52
18	12699	27.5	53
18	12919	28	54
18	13139	28.5	55
18	13351	29	56
18	13571	29.5	57
18	13791	30	58
18	14003	30.5	59
18	14223	31	60
18	14443	31.5	61
18	14655	32	62
18	14874	32.5	63
18	15091	33	64
18	15302	33.5	65
18	15515	34	66
18	15731	34.5	67
18	15934	35	68
18	16146	35.5	69
18	16356	36	70
18	16556	36.5	71
18	16765	37	72
18	16974	37.5	73
18	17174	38	74
18	17383	38.5	75
18	17591	39	76
18	17793	39.5	77
18	17994	40	78
18	18197	40.5	79
18	18386	41	80
18	18588	41.5	81
18	18781	42	82
18	18967	42.5	83
18	19160	43	84
18	19352	43.5	85
18	19527	44	86
18	19705	44.5	87
18	19882	45	88
18	20052	45.5	89
18	20224	46	90
18	20397	46.5	91
18	20566	47	92
18	20739	47.5	93
18	20912	48	94
18	21079	48.5	95
18	21253	49	96
18	21429	49.5	97
18	21596	50	98
18	21768	50.5	99
18	21943	51	100
19	770	1.5	1
19	990	2	2
19	1230	2.5	3
19	1470	3	4
19	1700	3.5	5
19	1940	4	6
19	2180	4.5	7
19	2410	5	8
19	2650	5.5	9
19	2890	6	10
19	3122	6.5	11
19	3361	7	12
19	3599	7.5	13
19	3826	8	14
19	4065	8.5	15
19	4300	9	16
19	4526	9.5	17
19	4762	10	18
19	4997	10.5	19
19	5223	11	20
19	5459	11.5	21
19	5694	12	22
19	5920	12.5	23
19	6156	13	24
19	6391	13.5	25
19	6617	14	26
19	6853	14.5	27
19	7088	15	28
19	7314	15.5	29
19	7550	16	30
19	7786	16.5	31
19	8009	17	32
19	8244	17.5	33
19	8476	18	34
19	8700	18.5	35
19	8930	19	36
19	9159	19.5	37
19	9379	20	38
19	9606	20.5	39
19	9830	21	40
19	10046	21.5	41
19	10271	22	42
19	10495	22.5	43
19	10711	23	44
19	10936	23.5	45
19	11160	24	46
19	11376	24.5	47
19	11601	25	48
19	11827	25.5	49
19	12040	26	50
19	12264	26.5	51
19	12485	27	52
19	12700	27.5	53
19	12920	28	54
19	13140	28.5	55
19	13352	29	56
19	13572	29.5	57
19	13792	30	58
19	14004	30.5	59
19	14224	31	60
19	14444	31.5	61
19	14656	32	62
19	14875	32.5	63
20	771	1.5	1
20	991	2	2
20	1231	2.5	3
20	1471	3	4
20	1701	3.5	5
20	1941	4	6
20	2181	4.5	7
20	2411	5	8
20	2651	5.5	9
20	2891	6	10
20	3123	6.5	11
20	3362	7	12
20	3600	7.5	13
20	3827	8	14
20	4066	8.5	15
20	4301	9	16
20	4527	9.5	17
20	4763	10	18
20	4998	10.5	19
20	5224	11	20
20	5460	11.5	21
20	5695	12	22
20	5921	12.5	23
20	6157	13	24
20	6392	13.5	25
20	6618	14	26
20	6854	14.5	27
20	7089	15	28