version 3
run Tictoc1-0-20240301-17:14:18-16776
attr configname Tictoc1
attr datetime 20240301-17:14:18
attr datetimef 20240301-171418
attr experiment Tictoc1
attr inifile omnetpp.ini
attr iterationvars ""
attr iterationvarsd ""
attr iterationvarsf ""
attr measurement ""
attr network Tictoc1
attr processid 16776
attr repetition 0
attr replication #0
attr resultdir results
attr runnumber 0
attr seedset 0
config network Tictoc1

vector 0 Tictoc1.peer[0] HopCount ETV
vector 1 Tictoc1.peer[1] HopCount ETV
vector 2 Tictoc1.peer[2] HopCount ETV
vector 3 Tictoc1.peer[3] HopCount ETV
vector 4 Tictoc1.peer[4] HopCount ETV
vector 5 Tictoc1.peer[5] HopCount ETV
vector 6 Tictoc1.peer[6] HopCount ETV
vector 7 Tictoc1.peer[7] HopCount ETV
vector 8 Tictoc1.peer[8] HopCount ETV
vector 9 Tictoc1.peer[9] HopCount ETV
vector 10 Tictoc1.peer[10] HopCount ETV
vector 11 Tictoc1.peer[11] HopCount ETV
vector 12 Tictoc1.peer[12] HopCount ETV
vector 13 Tictoc1.peer[13] HopCount ETV
vector 14 Tictoc1.peer[14] HopCount ETV
vector 15 Tictoc1.peer[15] HopCount ETV
vector 16 Tictoc1.peer[16] HopCount ETV
vector 17 Tictoc1.peer[17] HopCount ETV
vector 18 Tictoc1.peer[18] HopCount ETV
vector 19 Tictoc1.peer[19] HopCount ETV
vector 20 Tictoc1.peer[20] HopCount ETV
vector 21 Tictoc1.peer[21] HopCount ETV
vector 22 Tictoc1.peer[22] HopCount ETV
vector 23 Tictoc1.peer[23] HopCount ETV
vector 24 Tictoc1.peer[24] HopCount ETV
vector 25 Tictoc1.peer[25] HopCount ETV
vector 26 Tictoc1.peer[26] HopCount ETV
vector 27 Tictoc1.peer[27] HopCount ETV
vector 28 Tictoc1.peer[28] HopCount ETV
vector 29 Tictoc1.peer[29] HopCount ETV
vector 30 Tictoc1.peer[30] HopCount ETV
vector 31 Tictoc1.peer[31] HopCount ETV
vector 32 Tictoc1.peer[32] HopCount ETV
vector 33 Tictoc1.peer[33] HopCount ETV
vector 34 Tictoc1.peer[34] HopCount ETV
vector 35 Tictoc1.peer[35] HopCount ETV
vector 36 Tictoc1.peer[36] HopCount ETV
vector 37 Tictoc1.peer[37] HopCount ETV
vector 38 Tictoc1.peer[38] HopCount ETV
vector 39 Tictoc1.peer[39] HopCount ETV
vector 40 Tictoc1.peer[40] HopCount ETV
vector 41 Tictoc1.peer[41] HopCount ETV
vector 42 Tictoc1.peer[42] HopCount ETV
vector 43 Tictoc1.peer[43] HopCount ETV
vector 44 Tictoc1.peer[44] HopCount ETV
vector 45 Tictoc1.peer[45] HopCount ETV
vector 46 Tictoc1.peer[46] HopCount ETV
vector 47 Tictoc1.peer[47] HopCount ETV
vector 48 Tictoc1.peer[48] HopCount ETV
vector 49 Tictoc1.peer[49] HopCount ETV
vector 50 Tictoc1.peer[50] HopCount ETV
vector 51 Tictoc1.peer[51] HopCount ETV
vector 52 Tictoc1.peer[52] HopCount ETV
vector 53 Tictoc1.peer[53] HopCount ETV
vector 54 Tictoc1.peer[54] HopCount ETV
vector 55 Tictoc1.peer[55] HopCount ETV
vector 56 Tictoc1.peer[56] HopCount ETV
vector 57 Tictoc1.peer[57] HopCount ETV
vector 58 Tictoc1.peer[58] HopCount ETV
vector 59 Tictoc1.peer[59] HopCount ETV
vector 60 Tictoc1.peer[60] HopCount ETV
vector 61 Tictoc1.peer[61] HopCount ETV
vector 62 Tictoc1.peer[62] HopCount ETV
vector 63 Tictoc1.peer[63] HopCount ETV
vector 64 Tictoc1.peer[64] HopCount ETV
vector 65 Tictoc1.peer[65] HopCount ETV
vector 66 Tictoc1.peer[66] HopCount ETV
vector 67 Tictoc1.peer[67] HopCount ETV
vector 68 Tictoc1.peer[68] HopCount ETV
vector 69 Tictoc1.peer[69] HopCount ETV
vector 70 Tictoc1.peer[70] HopCount ETV
vector 71 Tictoc1.peer[71] HopCount ETV
vector 72 Tictoc1.peer[72] HopCount ETV
vector 73 Tictoc1.peer[73] HopCount ETV
vector 74 Tictoc1.peer[74] HopCount ETV
vector 75 Tictoc1.peer[75] HopCount ETV
vector 76 Tictoc1.peer[76] HopCount ETV
vector 77 Tictoc1.peer[77] HopCount ETV
vector 78 Tictoc1.peer[78] HopCount ETV
vector 79 Tictoc1.peer[79] HopCount ETV
vector 80 Tictoc1.peer[80] HopCount ETV
vector 81 Tictoc1.peer[81] HopCount ETV
vector 82 Tictoc1.peer[82] HopCount ETV
vector 83 Tictoc1.peer[83] HopCount ETV
vector 84 Tictoc1.peer[84] HopCount ETV
vector 85 Tictoc1.peer[85] HopCount ETV
vector 86 Tictoc1.peer[86] HopCount ETV
vector 87 Tictoc1.peer[87] HopCount ETV
vector 88 Tictoc1.peer[88] HopCount ETV
vector 89 Tictoc1.peer[89] HopCount ETV
vector 90 Tictoc1.peer[90] HopCount ETV
vector 91 Tictoc1.peer[91] HopCount ETV
vector 92 Tictoc1.peer[92] HopCount ETV
vector 93 Tictoc1.peer[93] HopCount ETV
vector 94 Tictoc1.peer[94] HopCount ETV
vector 95 Tictoc1.peer[95] HopCount ETV
vector 96 Tictoc1.peer[96] HopCount ETV
vector 97 Tictoc1.peer[97] HopCount ETV
vector 98 Tictoc1.peer[98] HopCount ETV
vector 99 Tictoc1.peer[99] HopCount ETV
vector 100 Tictoc1.peer[100] HopCount ETV
vector 101 Tictoc1.peer[101] HopCount ETV
vector 102 Tictoc1.peer[102] HopCount ETV
vector 103 Tictoc1.peer[103] HopCount ETV
vector 104 Tictoc1.peer[104] HopCount ETV
vector 105 Tictoc1.peer[105] HopCount ETV
vector 106 Tictoc1.peer[106] HopCount ETV
vector 107 Tictoc1.peer[107] HopCount ETV
vector 108 Tictoc1.peer[108] HopCount ETV
vector 109 Tictoc1.peer[109] HopCount ETV
vector 110 Tictoc1.peer[110] HopCount ETV
vector 111 Tictoc1.peer[111] HopCount ETV
vector 112 Tictoc1.peer[112] HopCount ETV
vector 113 Tictoc1.peer[113] HopCount ETV
vector 114 Tictoc1.peer[114] HopCount ETV
vector 115 Tictoc1.peer[115] HopCount ETV
vector 116 Tictoc1.peer[116] HopCount ETV
vector 117 Tictoc1.peer[117] HopCount ETV
vector 118 Tictoc1.peer[118] HopCount ETV
vector 119 Tictoc1.peer[119] HopCount ETV
vector 120 Tictoc1.peer[120] HopCount ETV
vector 121 Tictoc1.peer[121] HopCount ETV
vector 122 Tictoc1.peer[122] HopCount ETV
vector 123 Tictoc1.peer[123] HopCount ETV
vector 124 Tictoc1.peer[124] HopCount ETV
vector 125 Tictoc1.peer[125] HopCount ETV
vector 126 Tictoc1.peer[126] HopCount ETV
vector 127 Tictoc1.peer[127] HopCount ETV
vector 128 Tictoc1.peer[128] HopCount ETV
vector 129 Tictoc1.peer[129] HopCount ETV
vector 130 Tictoc1.peer[130] HopCount ETV
vector 131 Tictoc1.peer[131] HopCount ETV
vector 132 Tictoc1.peer[132] HopCount ETV
vector 133 Tictoc1.peer[133] HopCount ETV
vector 134 Tictoc1.peer[134] HopCount ETV
vector 135 Tictoc1.peer[135] HopCount ETV
vector 136 Tictoc1.peer[136] HopCount ETV
vector 137 Tictoc1.peer[137] HopCount ETV
vector 138 Tictoc1.peer[138] HopCount ETV
vector 139 Tictoc1.peer[139] HopCount ETV
vector 140 Tictoc1.peer[140] HopCount ETV
vector 141 Tictoc1.peer[141] HopCount ETV
vector 142 Tictoc1.peer[142] HopCount ETV
vector 143 Tictoc1.peer[143] HopCount ETV
vector 144 Tictoc1.peer[144] HopCount ETV
vector 145 Tictoc1.peer[145] HopCount ETV
vector 146 Tictoc1.peer[146] HopCount ETV
vector 147 Tictoc1.peer[147] HopCount ETV
vector 148 Tictoc1.peer[148] HopCount ETV
vector 149 Tictoc1.peer[149] HopCount ETV
0	2251	1.5	1
0	3001	2	2
0	3751	2.5	3
0	4501	3	4
0	5401	3.5	5
0	6151	4	6
0	6901	4.5	7
0	7651	5	8
0	8551	5.5	9
0	9301	6	10
0	10051	6.5	11
0	10801	7	12
0	11701	7.5	13
0	12451	8	14
0	13201	8.5	15
0	13951	9	16
0	14851	9.5	17
0	15601	10	18
0	16339	10.5	19
0	17074	11	20
0	17947	11.5	21
1	2252	1.5	1
1	3002	2	2
1	3752	2.5	3
1	4502	3	4
1	5402	3.5	5
1	6152	4	6
1	6902	4.5	7
1	7652	5	8
1	8552	5.5	9
1	9302	6	10
1	10052	6.5	11
1	10802	7	12
1	11702	7.5	13
1	12452	8	14
1	13202	8.5	15
1	13952	9	16
1	14852	9.5	17
1	15602	10	18
1	16340	10.5	19
1	17075	11	20
1	17948	11.5	21
1	18674	12	22
1	19379	12.5	23
1	20069	13	24
1	20909	13.5	25
1	21596	14	26
1	22276	14.5	27
1	23202	15.1	28
1	23989	15.7	29
1	24891	16.3	30
1	25627	16.9	31
1	26397	17.5	32
1	27134	18.1	33
1	27995	18.7	34
1	28719	19.3	35
1	29548	19.9	36
1	30159	20.5	37
1	30969	21.1	38
1	31657	21.7	39
1	32455	22.3	40
1	33113	22.9	41
1	33800	23.5	42
1	34456	24.1	43
1	35204	24.7	44
1	35845	25.3	45
1	36572	25.9	46
1	37108	26.5	47
1	37820	27.1	48
1	38399	27.7	49
1	39083	28.3	50
1	39643	28.9	51
1	40225	29.5	52
1	40776	30.1	53
1	41398	30.7	54
1	41937	31.3	55
1	42550	31.9	56
1	43000	32.5	57
1	43613	33.1	58
1	44136	33.7	59
1	44749	34.3	60
1	45272	34.9	61
1	45812	35.5	62
1	46335	36.1	63
1	46948	36.7	64
1	47471	37.3	65
1	48084	37.9	66
1	48534	38.5	67
1	49147	39.1	68
1	49670	39.7	69
1	50283	40.3	70
1	50806	40.9	71
1	51346	41.5	72
1	51869	42.1	73
1	52482	42.7	74
1	53005	43.3	75
1	53618	43.9	76
1	54068	44.5	77
1	54681	45.1	78
1	55204	45.7	79
1	55817	46.3	80
1	56340	46.9	81
1	56880	47.5	82
1	57403	48.1	83
1	58016	48.7	84
1	58539	49.3	85
1	59152	49.9	86
1	59602	50.5	87
1	60215	51.1	88
1	60446	51.7	89
1	60548	52.3	90
1	60633	52.9	91
1	60735	53.5	92
1	60820	54.1	93
1	60922	54.7	94
1	61007	55.3	95
1	61109	55.9	96
1	61194	56.5	97
1	61274	57.1	98
1	61320	57.7	99
1	61362	58.3	100
2	2253	1.5	1
2	3003	2	2
2	3753	2.5	3
2	4503	3	4
2	5403	3.5	5
2	6153	4	6
2	6903	4.5	7
2	7653	5	8
2	8553	5.5	9
2	9303	6	10
2	10053	6.5	11
2	10803	7	12
2	11703	7.5	13
2	12453	8	14
2	13203	8.5	15
2	13953	9	16
2	14853	9.5	17
2	15603	10	18
2	16341	10.5	19
2	17076	11	20
2	17949	11.5	21
2	18675	12	22
2	19380	12.5	23
3	2254	1.5	1
3	3004	2	2
3	3754	2.5	3
3	4504	3	4
3	5404	3.5	5
3	6154	4	6
3	6904	4.5	7
3	7654	5	8
3	8554	5.5	9
3	9304	6	10
3	10054	6.5	11
3	10804	7	12
3	11704	7.5	13
3	12454	8	14
3	13204	8.5	15
3	13954	9	16
3	14854	9.5	17
3	15604	10	18
3	16342	10.5	19
3	17077	11	20
3	17950	11.5	21
3	18676	12	22
3	19381	12.5	23
3	20071	13	24
3	20910	13.5	25
3	21597	14	26
3	22277	14.5	27
3	22943	15	28
3	23737	15.5	29
3	24393	16	30
3	25025	16.5	31
3	25648	17	32
3	26402	17.5	33
3	27139	18.1	34
3	28000	18.7	35
3	28724	19.3	36
3	29553	19.9	37
3	30163	20.5	38
3	30972	21.1	39
3	31660	21.7	40
3	32458	22.3	41
3	33116	22.9	42
3	33803	23.5	43
3	34459	24.1	44
3	35207	24.7	45
3	35848	25.3	46
3	36575	25.9	47
3	37111	26.5	48
3	37823	27.1	49
3	38402	27.7	50
3	39086	28.3	51
3	39646	28.9	52
3	40228	29.5	53
3	40779	30.1	54
3	41401	30.7	55
3	41940	31.3	56
3	42553	31.9	57
3	43003	32.5	58
3	43616	33.1	59
3	44139	33.7	60
3	44752	34.3	61
3	45275	34.9	62
3	45815	35.5	63
3	46338	36.1	64
3	46951	36.7	65
3	47474	37.3	66
3	48087	37.9	67
3	48537	38.5	68
3	49150	39.1	69
3	49673	39.7	70
3	50286	40.3	71
3	50809	40.9	72
3	51349	41.5	73
3	51872	42.1	74
3	52485	42.7	75
3	53008	43.3	76
3	53621	43.9	77
3	54071	44.5	78
3	54684	45.1	79
3	55207	45.7	80
3	55820	46.3	81
3	56343	46.9	82
3	56883	47.5	83
3	57406	48.1	84
3	58019	48.7	85
3	58542	49.3	86
3	59155	49.9	87
3	59605	50.5	88
3	60218	51.1	89
3	60449	51.7	90
3	60551	52.3	91
3	60636	52.9	92
3	60738	53.5	93
3	60823	54.1	94
3	60925	54.7	95
3	61010	55.3	96
3	61112	55.9	97
3	61197	56.5	98
3	61277	57.1	99
3	61323	57.7	100
4	2255	1.5	1
4	3005	2	2
4	3755	2.5	3
4	4505	3	4
4	5405	3.5	5
4	6155	4	6
4	6905	4.5	7
4	7655	5	8
4	8555	5.5	9
4	9305	6	10
4	10055	6.5	11
4	10805	7	12
4	11705	7.5	13
4	12455	8	14
4	13205	8.5	15
4	13955	9	16
4	14855	9.5	17
4	15605	10	18
4	16343	10.5	19
4	17078	11	20
4	17951	11.5	21
4	18677	12	22
4	19382	12.5	23
4	20072	13	24
4	20911	13.5	25
4	21598	14	26
4	22278	14.5	27
4	22944	15	28
4	23738	15.5	29
4	24394	16	30
4	25026	16.5	31
4	25649	17	32
4	26403	17.5	33
4	27020	18	34
4	27639	18.5	35
4	28493	19.1	36
4	29202	19.7	37
4	30034	20.3	38
4	30723	20.9	39
4	31441	21.5	40
4	32124	22.1	41
4	32902	22.7	42
4	33569	23.3	43
4	34333	23.9	44
4	34901	24.5	45
4	35641	25.1	46
4	36272	25.7	47
4	36996	26.3	48
4	37602	26.9	49
4	38217	27.5	50
4	38807	28.1	51
4	39464	28.7	52
4	40030	29.3	53
4	40673	29.9	54
4	41140	30.5	55
4	41762	31.1	56
4	42293	31.7	57
4	42906	32.3	58
4	43429	32.9	59
4	43969	33.5	60
4	44492	34.1	61
4	45105	34.7	62
4	45628	35.3	63
4	46241	35.9	64
4	46691	36.5	65
4	47304	37.1	66
4	47827	37.7	67
4	48440	38.3	68
4	48963	38.9	69
4	49503	39.5	70
4	50026	40.1	71
4	50639	40.7	72
4	51162	41.3	73
4	51775	41.9	74
4	52225	42.5	75
4	52838	43.1	76
4	53361	43.7	77
4	53974	44.3	78
4	54497	44.9	79
4	55037	45.5	80
4	55560	46.1	81
4	56173	46.7	82
4	56696	47.3	83
4	57309	47.9	84
4	57759	48.5	85
4	58372	49.1	86
4	58895	49.7	87
4	59508	50.3	88
4	60031	50.9	89
4	60425	51.5	90
4	60510	52.1	91
4	60612	52.7	92
4	60697	53.3	93
4	60799	53.9	94
4	60884	54.5	95
4	60986	55.1	96
4	61071	55.7	97
4	61173	56.3	98
4	61248	56.9	99
4	61310	57.5	100
5	2256	1.5	1
5	3006	2	2
5	3756	2.5	3
5	4506	3	4
5	5406	3.5	5
5	6156	4	6
5	6906	4.5	7
5	7656	5	8
5	8556	5.5	9
5	9306	6	10
5	10056	6.5	11
5	10806	7	12
5	11706	7.5	13
5	12456	8	14
5	13206	8.5	15
5	13956	9	16
5	14856	9.5	17
5	15606	10	18
5	16344	10.5	19
5	17079	11	20
5	17952	11.5	21
5	18678	12	22
5	19383	12.5	23
5	20073	13	24
5	20912	13.5	25
5	21599	14	26
5	22279	14.5	27
5	22945	15	28
5	23739	15.5	29
5	24395	16	30
5	25027	16.5	31
5	25650	17	32
5	26404	17.5	33
5	27021	18	34
5	27640	18.5	35
5	28494	19.1	36
5	29203	19.7	37
5	30035	20.3	38
5	30724	20.9	39
5	31442	21.5	40
6	2257	1.5	1
6	3007	2	2
6	3757	2.5	3
6	4507	3	4
6	5407	3.5	5
6	6157	4	6
6	6907	4.5	7
6	7657	5	8
6	8557	5.5	9
6	9307	6	10
6	10057	6.5	11
6	10807	7	12
6	11707	7.5	13
6	12457	8	14
6	13207	8.5	15
6	13957	9	16
6	14857	9.5	17
6	15607	10	18
6	16345	10.5	19
6	17080	11	20
6	17953	11.5	21
6	18679	12	22
6	19384	12.5	23
6	20074	13	24
6	20913	13.5	25
6	21600	14	26
6	22280	14.5	27
6	22946	15	28
6	23740	15.5	29
6	24396	16	30
6	25028	16.5	31
6	25651	17	32
6	26405	17.5	33
6	27022	18	34
6	27641	18.5	35
6	28256	19	36
6	28976	19.5	37
6	29575	20	38
6	30167	20.5	39
6	30746	21	40
6	31443	21.5	41
6	32017	22	42
6	32583	22.5	43
6	33137	23	44
6	33806	23.5	45
6	34359	24	46
6	34903	24.5	47
6	35438	25	48
6	36081	25.5	49
6	36601	26	50
6	37116	26.5	51
6	37629	27	52
6	38222	27.5	53
6	38713	28	54
6	39195	28.5	55
6	39667	29	56
6	40231	29.5	57
6	40694	30	58
6	41145	30.5	59
6	41591	31	60
6	42129	31.5	61
6	42567	32	62
6	43005	32.5	63
6	43445	33	64
6	43973	33.5	65
6	44411	34	66
6	44851	34.5	67
6	45289	35	68
6	45817	35.5	69
6	46257	36	70
6	46695	36.5	71
6	47133	37	72
6	47663	37.5	73
6	48101	38	74
6	48539	38.5	75
6	48979	39	76
6	49507	39.5	77
6	49945	40	78
6	50385	40.5	79
6	50823	41	80
6	51351	41.5	81
6	51791	42	82
6	52229	42.5	83
6	52667	43	84
6	53197	43.5	85
6	53635	44	86
6	54073	44.5	87
6	54513	45	88
6	55041	45.5	89
6	55479	46	90
6	55919	46.5	91
6	56357	47	92
6	56885	47.5	93
6	57325	48	94
6	57763	48.5	95
6	58201	49	96
6	58731	49.5	97
6	59169	50	98
6	59607	50.5	99
6	60047	51	100
7	2258	1.5	1
7	3008	2	2
7	3758	2.5	3
7	4508	3	4
7	5408	3.5	5
7	6158	4	6
7	6908	4.5	7
7	7658	5	8
7	8558	5.5	9
7	9308	6	10
7	10058	6.5	11
7	10808	7	12
7	11708	7.5	13
7	12458	8	14
7	13208	8.5	15
7	13958	9	16
7	14858	9.5	17
7	15608	10	18
7	16346	10.5	19
7	17081	11	20
7	17954	11.5	21
7	18680	12	22
7	19385	12.5	23
7	20075	13	24
7	20914	13.5	25
8	2259	1.5	1
8	3009	2	2
8	3759	2.5	3
8	4509	3	4
8	5409	3.5	5
8	6159	4	6
8	6909	4.5	7
8	7659	5	8
8	8559	5.5	9
8	9309	6	10
8	10059	6.5	11
8	10809	7	12
8	11709	7.5	13
8	12459	8	14
8	13209	8.5	15
8	13959	9	16
8	14859	9.5	17
8	15609	10	18
8	16347	10.5	19
8	17082	11	20
8	17955	11.5	21
8	18681	12	22
8	19386	12.5	23
8	20076	13	24
8	20915	13.5	25
8	21602	14	26
8	22281	14.5	27
8	22947	15	28
8	23741	15.5	29
8	24397	16	30
8	25029	16.5	31
8	25652	17	32
8	26406	17.5	33
8	27023	18	34
8	27642	18.5	35
8	28257	19	36
8	28977	19.5	37
8	29576	20	38
8	30168	20.5	39
8	30747	21	40
8	31444	21.5	41
8	32018	22	42
8	32584	22.5	43
8	33138	23	44
8	33807	23.5	45
8	34360	24	46
8	34904	24.5	47
8	35439	25	48
8	36082	25.5	49
8	36602	26	50
8	37117	26.5	51
8	37630	27	52
8	38223	27.5	53
8	38714	28	54
8	39196	28.5	55
8	39668	29	56
8	40232	29.5	57
8	40695	30	58
8	41146	30.5	59
8	41592	31	60
8	42130	31.5	61
8	42568	32	62
8	43006	32.5	63
8	43446	33	64
8	43974	33.5	65
8	44412	34	66
8	44852	34.5	67
8	45290	35	68
8	45818	35.5	69
8	46258	36	70
8	46696	36.5	71
8	47134	37	72
8	47664	37.5	73
8	48102	38	74
8	48540	38.5	75
8	48980	39	76
8	49508	39.5	77
8	49946	40	78
8	50386	40.5	79
8	50824	41	80
8	51352	41.5	81
8	51792	42	82
8	52230	42.5	83
8	52668	43	84
8	53198	43.5	85
8	53636	44	86
8	54074	44.5	87
8	54514	45	88
8	55042	45.5	89
8	55480	46	90
8	55920	46.5	91
8	56358	47	92
8	56886	47.5	93
8	57326	48	94
8	57764	48.5	95
8	58202	49	96
8	58732	49.5	97
8	59170	50	98
8	59608	50.5	99
8	60048	51	100
9	2260	1.5	1
9	3010	2	2
9	3760	2.5	3
9	4510	3	4
9	5410	3.5	5
9	6160	4	6
9	6910	4.5	7
9	7660	5	8
9	8560	5.5	9
9	9310	6	10
9	10060	6.5	11
9	10810	7	12
9	11710	7.5	13
9	12460	8	14
9	13210	8.5	15
9	13960	9	16
9	14860	9.5	17
9	15610	10	18
9	16348	10.5	19
9	17083	11	20
9	17956	11.5	21
9	18682	12	22
9	19387	12.5	23
9	20077	13	24
9	20916	13.5	25
9	21603	14	26
9	22282	14.5	27
9	22948	15	28
9	23742	15.5	29
9	24398	16	30
9	25030	16.5	31
9	25653	17	32
9	26407	17.5	33
9	27024	18	34
9	27643	18.5	35
9	28258	19	36
9	28978	19.5	37
9	29577	20	38
9	30169	20.5	39
9	30748	21	40
9	31445	21.5	41
9	32019	22	42
9	32585	22.5	43
9	33139	23	44
9	33808	23.5	45
9	34361	24	46
9	34905	24.5	47
9	35440	25	48
9	36083	25.5	49
9	36603	26	50
9	37118	26.5	51
9	37631	27	52
9	38224	27.5	53
9	38715	28	54
9	39197	28.5	55
9	39669	29	56
9	40233	29.5	57
9	40696	30	58
9	41147	30.5	59
9	41593	31	60
9	42131	31.5	61
9	42569	32	62
9	43007	32.5	63
9	43447	33	64
9	43975	33.5	65
9	44413	34	66
9	44853	34.5	67
9	45291	35	68
9	45819	35.5	69
9	46259	36	70
9	46697	36.5	71
9	47135	37	72
9	47665	37.5	73
9	48103	38	74
9	48541	38.5	75
9	48981	39	76
9	49509	39.5	77
9	49947	40	78
9	50387	40.5	79
9	50825	41	80
9	51353	41.5	81
9	51793	42	82
9	52231	42.5	83
9	52669	43	84
9	53199	43.5	85
9	53637	44	86
9	54075	44.5	87
9	54515	45	88
9	55043	45.5	89
9	55481	46	90
9	55921	46.5	91
9	56359	47	92
9	56887	47.5	93
9	57327	48	94
9	57765	48.5	95
9	58203	49	96
9	58733	49.5	97
9	59171	50	98
9	59609	50.5	99
9	60049	51	100
10	2261	1.5	1
10	3011	2	2
10	3761	2.5	3
10	4511	3	4
10	5411	3.5	5
10	6161	4	6
10	6911	4.5	7
10	7661	5	8
10	8561	5.5	9
10	9311	6	10
10	10061	6.5	11
10	10811	7	12
10	11711	7.5	13
10	12461	8	14
10	13211	8.5	15
10	13961	9	16
10	14861	9.5	17
11	2262	1.5	1
11	3012	2	2
11	3762	2.5	3
11	4512	3	4
11	5412	3.5	5
11	6162	4	6
11	6912	4.5	7
11	7662	5	8
11	8562	5.5	9
11	9312	6	10
11	10062	6.5	11
11	10812	7	12
11	11712	7.5	13
11	12462	8	14
11	13212	8.5	15
11	13962	9	16
11	14862	9.5	17
11	15612	10	18
11	16349	10.5	19
11	17084	11	20
11	17957	11.5	21
11	18683	12	22
11	19388	12.5	23
11	20078	13	24
11	20917	13.5	25
11	21604	14	26
11	22283	14.5	27
11	22949	15	28
11	23743	15.5	29
11	24399	16	30
11	25031	16.5	31
11	25654	17	32
11	26408	17.5	33
11	27025	18	34
11	27644	18.5	35
11	28259	19	36
11	28979	19.5	37
11	29578	20	38
11	30170	20.5	39
11	30749	21	40
11	31446	21.5	41
11	32020	22	42
11	32586	22.5	43
11	33140	23	44
11	33809	23.5	45
11	34362	24	46
11	34906	24.5	47
11	35441	25	48
11	36084	25.5	49
11	36604	26	50
11	37119	26.5	51
11	37632	27	52
11	38225	27.5	53
11	38716	28	54
11	39198	28.5	55
11	39670	29	56
11	40234	29.5	57
11	40697	30	58
11	41148	30.5	59
11	41594	31	60
11	42132	31.5	61
11	42570	32	62
11	43008	32.5	63
11	43448	33	64
11	43976	33.5	65
11	44414	34	66
11	44854	34.5	67
11	45292	35	68
11	45820	35.5	69
11	46260	36	70
11	46698	36.5	71
11	47136	37	72
11	47666	37.5	73
11	48104	38	74
11	48542	38.5	75
11	48982	39	76
11	49510	39.5	77
11	49948	40	78
11	50388	40.5	79
11	50826	41	80
11	51354	41.5	81
11	51794	42	82
11	52232	42.5	83
11	52670	43	84
11	53200	43.5	85
11	53638	44	86
11	54076	44.5	87
11	54516	45	88
11	55044	45.5	89
11	55482	46	90
11	55922	46.5	91
11	56360	47	92
11	56888	47.5	93
11	57328	48	94
11	57766	48.5	95
11	58204	49	96
11	58734	49.5	97
11	59172	50	98
11	59610	50.5	99
11	60050	51	100
12	2263	1.5	1
12	3013	2	2
12	3763	2.5	3
12	4513	3	4
12	5413	3.5	5
12	6163	4	6
12	6913	4.5	7
12	7663	5	8
12	8563	5.5	9
12	9313	6	10
12	10063	6.5	11
12	10813	7	12
12	11713	7.5	13
12	12463	8	14
12	13213	8.5	15
12	13963	9	16
12	14863	9.5	17
12	15613	10	18
12	16350	10.5	19
12	17085	11	20
12	17958	11.5	21
12	18684	12	22
12	19389	12.5	23
12	20079	13	24
12	20918	13.5	25
12	21605	14	26
12	22284	14.5	27
12	22950	15	28
12	23744	15.5	29
12	24400	16	30
12	28001	18.7	31
12	28725	19.3	32
12	29554	19.9	33
12	30164	20.5	34
12	30973	21.1	35
12	31661	21.7	36
12	32459	22.3	37
12	33117	22.9	38
12	33804	23.5	39
12	34460	24.1	40
12	35208	24.7	41
12	35849	25.3	42
12	36576	25.9	43
12	37112	26.5	44
12	37824	27.1	45
12	38403	27.7	46
12	39087	28.3	47
12	39647	28.9	48
13	2264	1.5	1
13	3014	2	2
13	3764	2.5	3
13	4514	3	4
13	5414	3.5	5
13	6164	4	6
13	6914	4.5	7
13	7664	5	8
13	8564	5.5	9
13	9314	6	10
13	10064	6.5	11
13	10814	7	12
13	11714	7.5	13
13	12464	8	14
13	13214	8.5	15
13	13964	9	16
13	14864	9.5	17
13	15614	10	18
13	16351	10.5	19
13	17086	11	20
13	17959	11.5	21
13	18685	12	22
13	19390	12.5	23
13	20080	13	24
13	20919	13.5	25
13	21606	14	26
13	22285	14.5	27
13	22951	15	28
13	23745	15.5	29
13	24401	16	30
13	25032	16.5	31
13	25655	17	32
13	26409	17.5	33
13	27026	18	34
13	27645	18.5	35
13	28260	19	36
13	28980	19.5	37
13	29579	20	38
13	30171	20.5	39
13	30750	21	40
13	31447	21.5	41
13	32021	22	42
13	32587	22.5	43
13	33141	23	44
13	33810	23.5	45
13	34363	24	46
13	34907	24.5	47
13	35442	25	48
13	36085	25.5	49
13	36605	26	50
13	37120	26.5	51
13	37633	27	52
13	38226	27.5	53
13	38717	28	54
13	39199	28.5	55
13	39671	29	56
13	40235	29.5	57
13	40698	30	58
13	41149	30.5	59
13	41595	31	60
13	42133	31.5	61
13	42571	32	62
13	43009	32.5	63
13	43449	33	64
13	43977	33.5	65
13	44415	34	66
13	44855	34.5	67
13	45293	35	68
13	45821	35.5	69
13	46261	36	70
13	46699	36.5	71
13	47137	37	72
13	47667	37.5	73
13	48105	38	74
13	48543	38.5	75
13	48983	39	76
13	49511	39.5	77
13	49949	40	78
13	50389	40.5	79
13	50827	41	80
13	51355	41.5	81
13	51795	42	82
13	52233	42.5	83
13	52671	43	84
13	53201	43.5	85
13	53639	44	86
13	54077	44.5	87
13	54517	45	88
13	55045	45.5	89
13	55483	46	90
13	55923	46.5	91
13	56361	47	92
13	56889	47.5	93
13	57329	48	94
13	57767	48.5	95
13	58205	49	96
13	58735	49.5	97
13	59173	50	98
13	59611	50.5	99
13	60051	51	100
14	2265	1.5	1
14	3015	2	2
14	3765	2.5	3
14	4515	3	4
14	5415	3.5	5
14	6165	4	6
14	6915	4.5	7
14	7665	5	8
14	8565	5.5	9
14	9315	6	10
14	10065	6.5	11
14	10815	7	12
14	11715	7.5	13
14	12465	8	14
14	13215	8.5	15
14	13965	9	16
14	14865	9.5	17
14	15615	10	18
14	16352	10.5	19
14	17087	11	20
14	17960	11.5	21
14	18686	12	22
14	19391	12.5	23
14	20081	13	24
14	20920	13.5	25
14	21607	14	26
14	22286	14.5	27
14	22952	15	28
14	23746	15.5	29
14	24402	16	30
14	25033	16.5	31
14	25656	17	32
14	26410	17.5	33
14	27027	18	34
14	27646	18.5	35
14	28261	19	36
14	28981	19.5	37
14	29580	20	38
14	30172	20.5	39
14	30751	21	40
14	31448	21.5	41
14	32022	22	42
14	32588	22.5	43
14	33142	23	44
14	33811	23.5	45
14	34364	24	46
14	34908	24.5	47
14	35443	25	48
14	36086	25.5	49
14	36606	26	50
14	37121	26.5	51
14	37634	27	52
14	38227	27.5	53
14	38718	28	54
14	39200	28.5	55
14	39672	29	56
14	40236	29.5	57
14	40699	30	58
14	41150	30.5	59
14	41596	31	60
14	42134	31.5	61
14	42572	32	62
14	43010	32.5	63
14	43450	33	64
14	43978	33.5	65
14	44416	34	66
14	44856	34.5	67
14	45294	35	68
14	45822	35.5	69
14	46262	36	70
14	46700	36.5	71
14	47138	37	72
14	47668	37.5	73
14	48106	38	74
14	48544	38.5	75
14	48984	39	76
14	49512	39.5	77
14	49950	40	78
14	50390	40.5	79
14	50828	41	80
14	51356	41.5	81
14	51796	42	82
14	52234	42.5	83
14	52672	43	84
14	53202	43.5	85
14	53640	44	86
14	54078	44.5	87
14	54518	45	88
14	55046	45.5	89
14	55484	46	90
14	55924	46.5	91
14	56362	47	92
14	56890	47.5	93
14	57330	48	94
14	57768	48.5	95
14	58206	49	96
14	58736	49.5	97
14	59174	50	98
14	59612	50.5	99
14	60052	51	100
15	2266	1.5	1
15	3016	2	2
15	3766	2.5	3
15	4516	3	4
15	5416	3.5	5
15	6166	4	6
15	6916	4.5	7
15	7666	5	8
15	8566	5.5	9
15	9316	6	10
15	10066	6.5	11
15	10816	7	12
15	11716	7.5	13
15	12466	8	14
15	13216	8.5	15
15	13966	9	16
15	14866	9.5	17
15	15616	10	18
15	16353	10.5	19
15	17088	11	20
15	17961	11.5	21
15	18687	12	22
15	19392	12.5	23
15	20082	13	24
15	20921	13.5	25
15	21608	14	26
15	22287	14.5	27
15	22953	15	28
15	23747	15.5	29
15	24403	16	30
15	25034	16.5	31
15	25657	17	32
15	26411	17.5	33
15	27028	18	34
15	27647	18.5	35
15	28262	19	36
15	28982	19.5	37
15	29581	20	38
15	30173	20.5	39
15	30752	21	40
15	31449	21.5	41
15	32023	22	42
15	32589	22.5	43
15	33143	23	44
15	33812	23.5	45
15	34365	24	46
16	2267	1.5	1
16	3017	2	2
16	3767	2.5	3
16	4517	3	4
16	5417	3.5	5
16	6167	4	6
16	6917	4.5	7
16	7667	5	8
16	8567	5.5	9
16	9317	6	10
16	10067	6.5	11
16	10817	7	12
16	11717	7.5	13
16	12467	8	14
16	13217	8.5	15
16	13967	9	16
16	14867	9.5	17
16	15617	10	18
16	16354	10.5	19
16	17089	11	20
16	17962	11.5	21
16	18688	12	22
16	19393	12.5	23
16	20083	13	24
16	20922	13.5	25
16	21609	14	26
16	22288	14.5	27
16	22954	15	28
16	23748	15.5	29
16	24404	16	30
16	25035	16.5	31
16	25658	17	32
16	26412	17.5	33
16	27029	18	34
16	27648	18.5	35
16	28263	19	36
16	28983	19.5	37
16	29582	20	38
16	30174	20.5	39
16	30753	21	40
16	31450	21.5	41
16	32024	22	42
16	32590	22.5	43
16	33144	23	44
16	33813	23.5	45
16	34366	24	46
16	34909	24.5	47
16	35444	25	48
16	36087	25.5	49
16	36607	26	50
16	37122	26.5	51
16	37635	27	52
16	38228	27.5	53
16	38719	28	54
16	39201	28.5	55
16	39673	29	56
16	40237	29.5	57
16	40700	30	58
16	41151	30.5	59
16	41597	31	60
16	42135	31.5	61
16	42573	32	62
16	43011	32.5	63
16	43451	33	64
16	43979	33.5	65
16	44417	34	66
16	44857	34.5	67
16	45295	35	68
16	45823	35.5	69
16	46263	36	70
16	46701	36.5	71
16	47139	37	72
16	47669	37.5	73
16	48107	38	74
16	48545	38.5	75
16	48985	39	76
16	49513	39.5	77
16	49951	40	78
16	50391	40.5	79
16	50829	41	80
16	51357	41.5	81
16	51797	42	82
16	52235	42.5	83
16	52673	43	84
16	53203	43.5	85
16	53641	44	86
16	54079	44.5	87
16	54519	45	88
16	55047	45.5	89
16	55485	46	90
16	55925	46.5	91
16	56363	47	92
16	56891	47.5	93
16	57331	48	94
16	57769	48.5	95
16	58207	49	96
16	58737	49.5	97
16	59175	50	98
16	59613	50.5	99
16	60053	51	100
17	2268	1.5	1
17	3018	2	2
17	3768	2.5	3
17	4518	3	4
17	5418	3.5	5
17	6168	4	6
17	6918	4.5	7
17	7668	5	8
17	8568	5.5	9
17	9318	6	10
17	10068	6.5	11
17	10818	7	12
17	11718	7.5	13
17	12468	8	14
17	13218	8.5	15
17	13968	9	16
17	14868	9.5	17
17	15618	10	18
17	16355	10.5	19
17	17090	11	20
17	17963	11.5	21
17	18689	12	22
17	22664	14.7	23
17	23465	15.3	24
17	24372	15.9	25
17	25022	16.5	26
17	25891	17.1	27
17	26638	17.7	28
17	27501	18.3	29
17	28233	18.9	30
17	28972	19.5	31
17	29688	20.1	32
17	30499	20.7	33
17	31198	21.3	34
17	31994	21.9	35
17	32579	22.5	36
17	33353	23.1	37
17	34010	23.7	38
17	34778	24.3	39
17	35411	24.9	40
17	36075	25.5	41
17	36694	26.1	42
17	37407	26.7	43
18	2269	1.5	1
18	3019	2	2
18	3769	2.5	3
18	4519	3	4
18	5419	3.5	5
18	6169	4	6
18	6919	4.5	7
18	7669	5	8
18	8569	5.5	9
18	9319	6	10
18	10069	6.5	11
18	10819	7	12
18	11719	7.5	13
18	12469	8	14
18	13219	8.5	15
18	13969	9	16
18	14869	9.5	17
18	15619	10	18
18	16356	10.5	19
18	17091	11	20
18	17964	11.5	21
18	18690	12	22
18	19394	12.5	23
18	20084	13	24
18	20923	13.5	25
18	21610	14	26
18	22289	14.5	27
18	22955	15	28
18	23749	15.5	29
18	24405	16	30
18	25036	16.5	31
18	25659	17	32
18	26413	17.5	33
18	27030	18	34
18	27649	18.5	35
18	28264	19	36
18	28984	19.5	37
18	29583	20	38
18	30175	20.5	39
18	30754	21	40
18	31451	21.5	41
18	32025	22	42
18	32591	22.5	43
18	33145	23	44
18	33814	23.5	45
18	34367	24	46
18	34910	24.5	47
18	35445	25	48
18	36088	25.5	49
18	36608	26	50
18	37123	26.5	51
18	37636	27	52
18	38229	27.5	53
18	38720	28	54
18	39202	28.5	55
18	39674	29	56
18	40238	29.5	57
18	40701	30	58
18	41152	30.5	59
18	41598	31	60
18	42136	31.5	61
18	42574	32	62
18	43012	32.5	63
18	43452	33	64
18	43980	33.5	65
18	44418	34	66
18	44858	34.5	67
18	45296	35	68
18	45824	35.5	69
18	46264	36	70
18	46702	36.5	71
18	47140	37	72
18	47670	37.5	73
18	48108	38	74
18	48546	38.5	75
18	48986	39	76
18	49514	39.5	77
18	49952	40	78
18	50392	40.5	79
18	50830	41	80
18	51358	41.5	81
18	51798	42	82
18	52236	42.5	83
18	52674	43	84
18	53204	43.5	85
18	53642	44	86
18	54080	44.5	87
18	54520	45	88
18	55048	45.5	89
18	55486	46	90
18	55926	46.5	91
18	56364	47	92
18	56892	47.5	93
18	57332	48	94
18	57770	48.5	95
18	58208	49	96
18	58738	49.5	97
18	59176	50	98
18	59614	50.5	99
18	60054	51	100
19	2270	1.5	1
19	3020	2	2
19	3770	2.5	3
19	4520	3	4
19	5420	3.5	5
19	6170	4	6
19	6920	4.5	7
19	7670	5	8
19	8570	5.5	9
19	9320	6	10
19	10070	6.5	11
19	10820	7	12
19	11720	7.5	13
19	12470	8	14
19	13220	8.5	15
19	13970	9	16
19	14870	9.5	17
19	15620	10	18
19	16357	10.5	19
19	17092	11	20
19	17965	11.5	21
19	18691	12	22
19	19395	12.5	23
19	20085	13	24
19	20924	13.5	25
19	21611	14	26
19	22290	14.5	27
19	22956	15	28
19	23750	15.5	29
19	24406	16	30
19	25037	16.5	31
19	25660	17	32
19	26414	17.5	33
19	27031	18	34
19	27650	18.5	35
19	28265	19	36
19	28985	19.5	37
19	29584	20	38
19	30176	20.5	39
19	30755	21	40
19	31452	21.5	41
19	32026	22	42
19	32592	22.5	43
19	33146	23	44
19	33815	23.5	45
19	34368	24	46
19	34911	24.5	47
19	35446	25	48
19	36089	25.5	49
19	36609	26	50
19	37124	26.5	51
19	37637	27	52
19	38230	27.5	53
19	38721	28	54
19	39203	28.5	55
19	39675	29	56
19	40239	29.5	57
19	40702	30	58
19	41153	30.5	59
19	41599	31	60
19	42137	31.5	61
19	42575	32	62
19	43013	32.5	63
19	43453	33	64
19	43981	33.5	65
19	44419	34	66
19	44859	34.5	67
19	45297	35	68
19	45825	35.5	69
19	46265	36	70
19	46703	36.5	71
19	47141	37	72
19	47671	37.5	73
19	48109	38	74
19	48547	38.5	75
19	48987	39	76
19	49515	39.5	77
19	49953	40	78
19	50393	40.5	79
19	50831	41	80
19	51359	41.5	81
19	51799	42	82
19	52237	42.5	83
19	52675	43	84
19	53205	43.5	85
19	53643	44	86
19	54081	44.5	87
19	54521	45	88
19	55049	45.5	89
19	55487	46	90
19	55927	46.5	91
19	56365	47	92
19	56893	47.5	93
19	57333	48	94
19	57771	48.5	95
19	58209	49	96
19	58739	49.5	97
19	59177	50	98
19	59615	50.5	99
19	60055	51	100
20	2271	1.5	1
20	3021	2	2
20	3771	2.5	3
20	4521	3	4
20	5421	3.5	5
20	6171	4	6
20	6921	4.5	7
20	7671	5	8
20	8571	5.5	9
20	9321	6	10
20	10071	6.5	11
20	10821	7	12
20	11721	7.5	13
20	12471	8	14
20	13221	8.5	15
20	13971	9	16
20	14871	9.5	17
20	15621	10	18
20	16358	10.5	19
20	17093	11	20
20	17966	11.5	21
20	18692	12	22
20	19396	12.5	23
20	20086	13	24
20	20925	13.5	25
20	21612	14	26
20	27019	18	27
20	27759	18.6	28
20	28611	19.2	29
20	29322	19.8	30
20	30148	20.4	31
20	30745	21	32
20	31551	21.6	33
20	32235	22.2	34
20	33010	22.8	35
20	33677	23.4	36
20	34357	24	37
20	35004	24.6	38
20	35748	25.2	39
20	36375	25.8	40
21	2272	1.5	1
21	3022	2	2
21	3772	2.5	3
21	4522	3	4
21	5422	3.5	5
21	6172	4	6
21	6922	4.5	7
21	7672	5	8
21	8572	5.5	9
21	9322	6	10
21	10072	6.5	11
21	10822	7	12
21	11722	7.5	13
21	12472	8	14
21	13222	8.5	15
21	13972	9	16
21	14872	9.5	17
21	15622	10	18
21	16359	10.5	19
21	17094	11	20
21	17967	11.5	21
21	18693	12	22
21	19397	12.5	23
21	20087	13	24
21	20926	13.5	25
21	21613	14	26
21	22291	14.5	27
21	22957	15	28
21	23751	15.5	29
21	24407	16	30
21	25038	16.5	31
21	25661	17	32
21	26415	17.5	33
21	27032	18	34
21	27651	18.5	35
21	28266	19	36
21	28986	19.5	37
21	29585	20	38
21	30177	20.5	39
21	30756	21	40
21	31453	21.5	41