version 3
run Tictoc3-0-20240121-17:56:27-15569
attr configname Tictoc3
attr datetime 20240121-17:56:27
attr datetimef 20240121-175627
attr experiment Tictoc3
attr inifile omnetpp.ini
attr iterationvars ""
attr iterationvarsd ""
attr iterationvarsf ""
attr measurement ""
attr network Tictoc3
attr processid 15569
attr repetition 0
attr replication #0
attr resultdir results
attr runnumber 0
attr seedset 0
config network Tictoc3

vector 0 Tictoc3.peer[0] HopCount ETV
vector 1 Tictoc3.peer[1] HopCount ETV
vector 2 Tictoc3.peer[2] HopCount ETV
vector 3 Tictoc3.peer[3] HopCount ETV
vector 4 Tictoc3.peer[4] HopCount ETV
vector 5 Tictoc3.peer[5] HopCount ETV
vector 6 Tictoc3.peer[6] HopCount ETV
vector 7 Tictoc3.peer[7] HopCount ETV
vector 8 Tictoc3.peer[8] HopCount ETV
vector 9 Tictoc3.peer[9] HopCount ETV
vector 10 Tictoc3.peer[10] HopCount ETV
vector 11 Tictoc3.peer[11] HopCount ETV
vector 12 Tictoc3.peer[12] HopCount ETV
vector 13 Tictoc3.peer[13] HopCount ETV
vector 14 Tictoc3.peer[14] HopCount ETV
vector 15 Tictoc3.peer[15] HopCount ETV
vector 16 Tictoc3.peer[16] HopCount ETV
vector 17 Tictoc3.peer[17] HopCount ETV
vector 18 Tictoc3.peer[18] HopCount ETV
vector 19 Tictoc3.peer[19] HopCount ETV
vector 20 Tictoc3.peer[20] HopCount ETV
vector 21 Tictoc3.peer[21] HopCount ETV
vector 22 Tictoc3.peer[22] HopCount ETV
vector 23 Tictoc3.peer[23] HopCount ETV
vector 24 Tictoc3.peer[24] HopCount ETV
vector 25 Tictoc3.peer[25] HopCount ETV
vector 26 Tictoc3.peer[26] HopCount ETV
vector 27 Tictoc3.peer[27] HopCount ETV
vector 28 Tictoc3.peer[28] HopCount ETV
vector 29 Tictoc3.peer[29] HopCount ETV
vector 30 Tictoc3.peer[30] HopCount ETV
vector 31 Tictoc3.peer[31] HopCount ETV
vector 32 Tictoc3.peer[32] HopCount ETV
vector 33 Tictoc3.peer[33] HopCount ETV
vector 34 Tictoc3.peer[34] HopCount ETV
vector 35 Tictoc3.peer[35] HopCount ETV
vector 36 Tictoc3.peer[36] HopCount ETV
vector 37 Tictoc3.peer[37] HopCount ETV
vector 38 Tictoc3.peer[38] HopCount ETV
vector 39 Tictoc3.peer[39] HopCount ETV
vector 40 Tictoc3.peer[40] HopCount ETV
vector 41 Tictoc3.peer[41] HopCount ETV
vector 42 Tictoc3.peer[42] HopCount ETV
vector 43 Tictoc3.peer[43] HopCount ETV
vector 44 Tictoc3.peer[44] HopCount ETV
vector 45 Tictoc3.peer[45] HopCount ETV
vector 46 Tictoc3.peer[46] HopCount ETV
vector 47 Tictoc3.peer[47] HopCount ETV
vector 48 Tictoc3.peer[48] HopCount ETV
vector 49 Tictoc3.peer[49] HopCount ETV
vector 50 Tictoc3.peer[50] HopCount ETV
vector 51 Tictoc3.peer[51] HopCount ETV
vector 52 Tictoc3.peer[52] HopCount ETV
vector 53 Tictoc3.peer[53] HopCount ETV
vector 54 Tictoc3.peer[54] HopCount ETV
vector 55 Tictoc3.peer[55] HopCount ETV
vector 56 Tictoc3.peer[56] HopCount ETV
vector 57 Tictoc3.peer[57] HopCount ETV
vector 58 Tictoc3.peer[58] HopCount ETV
vector 59 Tictoc3.peer[59] HopCount ETV
vector 60 Tictoc3.peer[60] HopCount ETV
vector 61 Tictoc3.peer[61] HopCount ETV
vector 62 Tictoc3.peer[62] HopCount ETV
vector 63 Tictoc3.peer[63] HopCount ETV
vector 64 Tictoc3.peer[64] HopCount ETV
vector 65 Tictoc3.peer[65] HopCount ETV
vector 66 Tictoc3.peer[66] HopCount ETV
vector 67 Tictoc3.peer[67] HopCount ETV
vector 68 Tictoc3.peer[68] HopCount ETV
vector 69 Tictoc3.peer[69] HopCount ETV
vector 70 Tictoc3.peer[72] HopCount ETV
vector 71 Tictoc3.peer[73] HopCount ETV
vector 72 Tictoc3.peer[74] HopCount ETV
vector 73 Tictoc3.peer[75] HopCount ETV
vector 74 Tictoc3.peer[78] HopCount ETV
vector 75 Tictoc3.peer[79] HopCount ETV
vector 76 Tictoc3.peer[80] HopCount ETV
vector 77 Tictoc3.peer[81] HopCount ETV
vector 78 Tictoc3.peer[82] HopCount ETV
vector 79 Tictoc3.peer[83] HopCount ETV
vector 80 Tictoc3.peer[89] HopCount ETV
vector 81 Tictoc3.peer[91] HopCount ETV
vector 82 Tictoc3.peer[92] HopCount ETV
vector 83 Tictoc3.peer[94] HopCount ETV
vector 84 Tictoc3.peer[95] HopCount ETV
vector 85 Tictoc3.peer[96] HopCount ETV
vector 86 Tictoc3.peer[98] HopCount ETV
vector 87 Tictoc3.peer[99] HopCount ETV
vector 88 Tictoc3.peer[70] HopCount ETV
vector 89 Tictoc3.peer[71] HopCount ETV
vector 90 Tictoc3.peer[76] HopCount ETV
vector 91 Tictoc3.peer[77] HopCount ETV
vector 92 Tictoc3.peer[84] HopCount ETV
vector 93 Tictoc3.peer[85] HopCount ETV
vector 94 Tictoc3.peer[86] HopCount ETV
vector 95 Tictoc3.peer[87] HopCount ETV
vector 96 Tictoc3.peer[88] HopCount ETV
vector 97 Tictoc3.peer[90] HopCount ETV
vector 98 Tictoc3.peer[93] HopCount ETV
vector 99 Tictoc3.peer[97] HopCount ETV
0	1901	1.5	1
0	3077	2.1	2
0	4041	2.6	3
0	4505	2.9	4
0	5221	3.4	5
0	5657	3.7	6
0	6373	4.2	7
0	6849	4.5	8
0	7515	5	9
0	7997	5.3	10
0	9463	5.8	11
0	10348	6.1	11
0	10620	6.2	11
0	12252	6.6	12
0	13252	6.9	12
0	13583	7	12
0	14093	7.2	12
0	14094	7.2	13
0	14095	7.2	13
0	14096	7.2	13
0	14097	7.2	13
0	14098	7.2	13
0	14099	7.2	13
0	14100	7.2	13
0	14101	7.2	13
0	14102	7.2	13
0	14103	7.2	13
0	14104	7.2	13
0	14105	7.2	13
0	14106	7.2	13
0	14107	7.2	13
0	14108	7.2	13
0	14109	7.2	13
0	14110	7.2	13
0	14111	7.2	13
0	14112	7.2	13
0	14113	7.2	13
0	14114	7.2	13
0	14115	7.2	13
0	14116	7.2	13
0	14117	7.2	13
0	14118	7.2	13
0	14119	7.2	13
0	14120	7.2	13
0	14121	7.2	13
0	14122	7.2	13
0	14123	7.2	13
0	14124	7.2	13
0	14125	7.2	13
0	14126	7.2	13
0	14127	7.2	13
0	14128	7.2	13
0	14129	7.2	13
0	14130	7.2	13
0	14131	7.2	13
0	14132	7.2	13
0	14133	7.2	13
0	14134	7.2	13
0	14135	7.2	13
0	14136	7.2	13
0	14137	7.2	13
0	14138	7.2	13
0	14139	7.2	13
0	14140	7.2	13
0	14141	7.2	13
0	14142	7.2	13
0	14143	7.2	13
0	14144	7.2	13
0	14145	7.2	13
0	14146	7.2	13
0	14147	7.2	13
0	14148	7.2	13
0	14149	7.2	13
0	14150	7.2	13
0	14151	7.2	13
0	14152	7.2	13
0	14153	7.2	13
0	14154	7.2	13
0	14155	7.2	13
0	14156	7.2	13
0	14157	7.2	13
0	14158	7.2	13
0	14159	7.2	13
0	14160	7.2	13
0	14161	7.2	13
0	14162	7.2	13
0	14163	7.2	13
0	14164	7.2	13
0	14165	7.2	13
0	14166	7.2	13
0	14167	7.2	13
0	14168	7.2	13
0	14169	7.2	13
0	14170	7.2	13
0	14171	7.2	13
0	14172	7.2	13
0	14173	7.2	13
0	14174	7.2	13
0	14175	7.2	13
0	14780	7.4	14
0	15880	7.6	14
0	15881	7.6	14
0	15882	7.6	14
0	15883	7.6	14
0	15884	7.6	14
0	15885	7.6	14
0	15886	7.6	14
0	15887	7.6	14
0	15888	7.6	14
0	15889	7.6	14
0	15890	7.6	14
0	15891	7.6	14
0	15892	7.6	14
0	15893	7.6	14
0	15894	7.6	14
0	15895	7.6	14
0	15896	7.6	14
0	15897	7.6	14
0	15898	7.6	14
0	15899	7.6	14
0	15900	7.6	14
0	15901	7.6	14
0	15902	7.6	14
0	15903	7.6	14
0	15904	7.6	14
0	15905	7.6	14
0	15906	7.6	14
0	15907	7.6	14
0	15908	7.6	14
0	15909	7.6	14
0	15910	7.6	14
0	15911	7.6	14
0	15912	7.6	14
0	15913	7.6	14
0	15914	7.6	14
0	15915	7.6	14
0	15916	7.6	14
0	15917	7.6	14
0	15918	7.6	14
0	15919	7.6	14
0	15920	7.6	14
0	15921	7.6	14
0	15922	7.6	14
0	15923	7.6	14
0	15924	7.6	14
0	15925	7.6	14
0	15926	7.6	14
0	15927	7.6	14
0	15928	7.6	14
0	15929	7.6	14
0	15930	7.6	14
0	15931	7.6	14
0	15932	7.6	14
0	15933	7.6	14
0	15934	7.6	14
0	15935	7.6	14
0	15936	7.6	14
0	15937	7.6	14
0	15938	7.6	14
0	15939	7.6	14
0	15940	7.6	14
0	15941	7.6	14
0	15942	7.6	14
0	15943	7.6	14
0	16418	7.7	14
0	16748	7.8	14
0	17476	8	14
0	17477	8	14
0	17478	8	15
0	17479	8	15
0	17480	8	15
0	17481	8	15
0	17482	8	15
0	17483	8	15
0	17484	8	15
0	17485	8	15
0	17486	8	15
0	17487	8	15
0	17488	8	15
0	17489	8	15
0	17490	8	15
0	17491	8	15
0	17492	8	15
0	17493	8	15
0	17494	8	15
0	17495	8	15
0	17496	8	15
0	17497	8	15
0	17498	8	15
0	17499	8	15
0	17500	8	15
0	17501	8	15
0	17502	8	15
0	17503	8	15
0	17504	8	15
0	17505	8	15
0	17506	8	15
0	17507	8	15
0	17508	8	15
0	17509	8	15
0	17510	8	15
0	17511	8	15
0	17512	8	15
0	17513	8	15
0	17514	8	15
0	17515	8	15
0	17516	8	15
0	17517	8	15
0	17518	8	15
0	17519	8	15
0	17520	8	15
0	17521	8	15
0	17522	8	15
0	17523	8	15
0	17524	8	15
0	17525	8	15
0	17526	8	15
0	17527	8	15
0	17528	8	15
0	17529	8	15
0	17530	8	15
0	17531	8	15
0	17532	8	15
0	17533	8	15
0	17534	8	15
0	17535	8	15
0	17536	8	15
0	17537	8	15
0	17538	8	15
0	17539	8	15
0	17540	8	15
0	17541	8	15
0	17542	8	15
0	17543	8	15
0	17544	8	15
0	17545	8	15
0	17546	8	15
0	17547	8	15
0	17548	8	15
0	17549	8	15
0	17550	8	15
0	17551	8	15
0	17552	8	15
0	17553	8	15
0	17554	8	15
0	17555	8	15
0	17556	8	15
0	17557	8	15
0	17558	8	15
0	18268	8.2	16
0	18276	8.2	16
0	18279	8.2	16
0	18280	8.2	17
0	18281	8.2	17
0	18282	8.2	17
0	18283	8.2	17
0	18284	8.2	17
0	18285	8.2	17
0	18286	8.2	17
0	18287	8.2	17
0	18288	8.2	17
0	18289	8.2	17
0	18290	8.2	17
0	18291	8.2	17
0	18292	8.2	17
0	18293	8.2	17
0	18294	8.2	17
0	18295	8.2	17
0	18296	8.2	17
0	18297	8.2	17
0	18298	8.2	17
0	18299	8.2	17
0	18300	8.2	17
0	18301	8.2	17
0	18302	8.2	17
0	18303	8.2	17
0	18304	8.2	17
0	18305	8.2	17
0	18306	8.2	17
0	18307	8.2	17
0	18308	8.2	17
0	18309	8.2	17
0	18310	8.2	17
0	18311	8.2	17
0	18312	8.2	17
0	18313	8.2	17
0	18314	8.2	17
0	18315	8.2	17
0	18316	8.2	17
0	18317	8.2	17
0	18318	8.2	17
0	18319	8.2	17
0	18320	8.2	17
0	18321	8.2	17
0	18322	8.2	17
0	18323	8.2	17
0	18324	8.2	17
0	18325	8.2	17
0	18326	8.2	17
0	18327	8.2	17
0	18328	8.2	17
0	18329	8.2	17
0	18330	8.2	17
0	19998	8.5	17
0	20709	8.6	17
0	20710	8.6	17
0	20711	8.6	17
0	20712	8.6	17
0	20713	8.6	17
0	20714	8.6	17
0	20715	8.6	17
0	20716	8.6	17
0	20717	8.6	17
0	20718	8.6	17
0	20719	8.6	17
0	20720	8.6	17
0	20721	8.6	17
0	20722	8.6	17
0	20723	8.6	17
0	20724	8.6	17
0	20725	8.6	17
0	20726	8.6	17
0	20727	8.6	17
0	20728	8.6	17
0	20729	8.6	17
0	20730	8.6	17
0	20731	8.6	17
0	20732	8.6	17
0	20733	8.6	17
0	20734	8.6	17
0	20735	8.6	17
0	20736	8.6	17
0	20737	8.6	17
0	20738	8.6	17
0	20739	8.6	17
0	20740	8.6	17
0	20741	8.6	17
0	20742	8.6	17
0	20743	8.6	17
0	20744	8.6	17
0	20745	8.6	17
0	20746	8.6	17
0	20747	8.6	17
0	20748	8.6	17
0	20749	8.6	17
0	20750	8.6	17
0	20751	8.6	17
0	20752	8.6	17
0	20753	8.6	17
0	20754	8.6	17
0	20764	8.6	17
0	22102	8.8	17
0	22103	8.8	17
0	22104	8.8	17
0	22105	8.8	17
0	22106	8.8	17
0	22107	8.8	17
0	22108	8.8	17
0	22109	8.8	17
0	22110	8.8	17
0	22111	8.8	17
0	22112	8.8	17
0	22113	8.8	17
0	22114	8.8	17
0	22115	8.8	17
0	22116	8.8	17
0	22117	8.8	17
0	22118	8.8	17
0	22119	8.8	17
0	22120	8.8	17
0	22121	8.8	17
0	22122	8.8	17
0	22123	8.8	17
0	22124	8.8	17
0	22125	8.8	17
0	22126	8.8	17
0	22127	8.8	17
0	22128	8.8	17
0	22129	8.8	17
0	22130	8.8	17
0	22131	8.8	17
0	22132	8.8	17
0	22133	8.8	17
0	22134	8.8	17
0	22135	8.8	17
0	22136	8.8	17
0	22137	8.8	17
0	22138	8.8	17
0	22139	8.8	17
0	22140	8.8	17
0	22141	8.8	17
0	22142	8.8	17
0	22143	8.8	17
0	22144	8.8	17
0	22145	8.8	17
0	22146	8.8	17
0	22147	8.8	17
0	22148	8.8	17
0	22149	8.8	17
0	22150	8.8	17
0	22151	8.8	17
0	22152	8.8	17
0	22153	8.8	17
0	22154	8.8	17
0	22155	8.8	17
0	22156	8.8	17
0	22157	8.8	17
0	22158	8.8	17
0	22159	8.8	17
0	22160	8.8	17
0	22161	8.8	17
0	22162	8.8	17
0	22163	8.8	17
0	22164	8.8	17
0	22165	8.8	17
0	22169	8.8	17
0	22170	8.8	17
0	22171	8.8	17
0	22172	8.8	17
0	22173	8.8	17
0	22174	8.8	17
0	22175	8.8	17
0	22176	8.8	17
0	22177	8.8	17
0	22178	8.8	17
0	22179	8.8	17
0	22180	8.8	17
0	22181	8.8	17
0	22182	8.8	17
0	22183	8.8	17
0	22184	8.8	17
0	22185	8.8	17
0	22186	8.8	17
0	22187	8.8	17
0	22188	8.8	17
0	22189	8.8	17
0	22190	8.8	17
0	22191	8.8	17
0	22192	8.8	17
0	22193	8.8	17
0	22194	8.8	17
0	22195	8.8	17
0	22196	8.8	17
0	22197	8.8	17
0	22198	8.8	17
0	22199	8.8	17
0	22200	8.8	17
0	22201	8.8	17
0	22202	8.8	17
0	22203	8.8	17
0	22204	8.8	17
0	22205	8.8	17
0	22206	8.8	17
0	22207	8.8	17
0	22208	8.8	17
0	22209	8.8	17
0	22210	8.8	17
0	22211	8.8	17
0	22212	8.8	17
0	22213	8.8	17
0	22214	8.8	17
0	22215	8.8	17
0	22216	8.8	17
0	22217	8.8	17
0	22218	8.8	17
0	22219	8.8	17
0	22220	8.8	17
0	22221	8.8	17
0	22222	8.8	17
0	22223	8.8	17
0	22224	8.8	17
0	22225	8.8	17
0	22226	8.8	17
0	22227	8.8	17
0	22228	8.8	17
0	22229	8.8	17
0	22230	8.8	17
0	22231	8.8	17
0	22232	8.8	17
0	22233	8.8	17
0	22234	8.8	17
0	22235	8.8	17
0	22236	8.8	17
0	22237	8.8	17
0	22238	8.8	17
0	22239	8.8	17
0	22240	8.8	17
0	22241	8.8	17
0	22242	8.8	17
0	22243	8.8	17
0	22244	8.8	17
0	22245	8.8	17
0	22246	8.8	17
0	22247	8.8	17
0	22248	8.8	17
0	22249	8.8	17
0	22250	8.8	17
0	22251	8.8	17
0	23322	9	18
0	23329	9	18
0	23332	9	18
0	23333	9	18
0	23334	9	18
0	23335	9	18
0	23336	9	18
0	23337	9	18
0	23338	9	18
0	23339	9	18
0	23340	9	18
0	23341	9	18
0	23342	9	18
0	23343	9	18
0	23344	9	18
0	23345	9	18
0	23346	9	18
0	23347	9	18
0	23348	9	18
0	23349	9	18
0	23350	9	18
0	23351	9	18
0	23352	9	18
0	23353	9	18
0	23354	9	18
0	23355	9	18
0	23356	9	18
0	23357	9	18
0	23358	9	18
0	23359	9	18
0	23360	9	18
0	23361	9	18
0	23362	9	18
0	23363	9	18
0	23364	9	18
0	23365	9	18
0	23366	9	18
0	23367	9	18
0	23368	9	18
0	23369	9	18
0	23370	9	18
0	23371	9	18
0	23372	9	18
0	23373	9	18
0	23374	9	18
0	23375	9	18
0	23376	9	18
0	23377	9	18
0	23378	9	18
0	23379	9	18
0	23380	9	18
0	23381	9	18
0	23382	9	18
0	23383	9	18
0	24507	9.2	18
0	24508	9.2	19
0	24509	9.2	19
0	24510	9.2	19
0	24511	9.2	19
0	24512	9.2	19
0	24513	9.2	19
0	24514	9.2	19
0	24515	9.2	19
0	24516	9.2	19
0	24517	9.2	19
0	24518	9.2	19
0	24519	9.2	19
0	24520	9.2	19
0	24521	9.2	19
0	24522	9.2	19
0	24523	9.2	19
0	24524	9.2	19
0	24525	9.2	19
0	24526	9.2	19
0	24527	9.2	19
0	24528	9.2	19
0	24529	9.2	19
0	24530	9.2	19
0	24531	9.2	19
0	24532	9.2	19
0	24533	9.2	19
0	24534	9.2	19
0	24535	9.2	19
0	24536	9.2	19
0	24537	9.2	19
0	24540	9.2	19
0	24541	9.2	19
0	24542	9.2	19
0	24543	9.2	19
0	24544	9.2	19
0	24545	9.2	19
0	24546	9.2	19
0	24547	9.2	19
0	24548	9.2	19
0	24549	9.2	19
0	24550	9.2	19
0	24551	9.2	19
0	24552	9.2	19
0	24553	9.2	19
0	24554	9.2	19
0	24555	9.2	19
0	24556	9.2	19
0	24557	9.2	19
0	24558	9.2	19
0	24559	9.2	19
0	24560	9.2	19
0	24561	9.2	19
0	24562	9.2	19
0	24563	9.2	19
0	24564	9.2	19
0	24565	9.2	19
0	24566	9.2	19
0	24567	9.2	19
0	24568	9.2	19
0	24569	9.2	19
0	24570	9.2	19
0	24571	9.2	19
0	24572	9.2	19
0	24573	9.2	19
0	24574	9.2	19
0	24575	9.2	19
0	24576	9.2	19
0	24577	9.2	19
0	24578	9.2	19
0	24579	9.2	19
0	24580	9.2	19
0	24581	9.2	19
0	24582	9.2	19
0	24583	9.2	19
0	24584	9.2	19
0	24585	9.2	19
0	24586	9.2	19
0	24587	9.2	19
0	24588	9.2	19
0	24589	9.2	19
0	24591	9.2	19
0	25067	9.3	19
0	25593	9.4	19
0	26994	9.6	19
0	26995	9.6	19
0	26996	9.6	19
0	26997	9.6	19
0	26998	9.6	19
0	26999	9.6	19
0	27000	9.6	19
0	27001	9.6	19
0	27002	9.6	19
0	27003	9.6	19
0	27004	9.6	19
0	27005	9.6	19
0	27006	9.6	19
0	27007	9.6	19
0	27008	9.6	19
0	27009	9.6	19
0	27010	9.6	19
0	27011	9.6	19
0	27012	9.6	19
0	27013	9.6	19
0	27014	9.6	19
0	27015	9.6	19
0	27016	9.6	19
0	27017	9.6	19
0	27018	9.6	19
0	27019	9.6	19
0	27020	9.6	19
0	27021	9.6	19
0	27022	9.6	19
0	27023	9.6	19
0	27024	9.6	19
0	27025	9.6	19
0	27026	9.6	19
0	27027	9.6	19
0	27028	9.6	19
0	27029	9.6	19
0	27030	9.6	19
0	27031	9.6	19
0	27032	9.6	19
0	27033	9.6	19
0	27034	9.6	19
0	27035	9.6	19
0	27036	9.6	19
0	27037	9.6	19
0	27038	9.6	19
0	27039	9.6	19
0	27040	9.6	19
0	27041	9.6	19
0	27042	9.6	19
0	27043	9.6	19
0	27044	9.6	19
0	27045	9.6	19
0	27046	9.6	19
0	27047	9.6	19
0	27048	9.6	19
0	27049	9.6	19
0	27050	9.6	19
0	27051	9.6	19
0	27052	9.6	19
0	27053	9.6	19
0	27054	9.6	19
0	27055	9.6	19
0	27056	9.6	19
0	27057	9.6	19
0	27058	9.6	19
0	27059	9.6	19
0	27060	9.6	19
0	27064	9.6	19
0	27065	9.6	19
0	27066	9.6	19
0	27067	9.6	19
0	27068	9.6	19
0	27069	9.6	19
0	27070	9.6	19
0	27071	9.6	19
0	27072	9.6	19
0	27073	9.6	19
0	27074	9.6	19
0	27075	9.6	19
0	27076	9.6	19
0	27077	9.6	19
0	27078	9.6	19
0	27079	9.6	19
0	27080	9.6	19
0	27081	9.6	19
0	27082	9.6	19
0	27083	9.6	19
0	27084	9.6	19
0	27085	9.6	19
0	27086	9.6	19
0	27087	9.6	19
0	27088	9.6	19
0	27089	9.6	19
0	27090	9.6	19
0	27091	9.6	19
0	27092	9.6	19
0	27093	9.6	19
0	27094	9.6	19
0	27095	9.6	19
0	27096	9.6	19
0	27097	9.6	19
0	27098	9.6	19
0	27099	9.6	19
0	27100	9.6	19
0	27101	9.6	19
0	27102	9.6	19
0	27103	9.6	19
0	27104	9.6	19
0	27105	9.6	19
0	27106	9.6	19
0	27107	9.6	19
0	27108	9.6	19
0	27109	9.6	19
0	27110	9.6	19
0	27111	9.6	19
0	27112	9.6	19
0	27113	9.6	19
0	27114	9.6	19
0	27115	9.6	19
0	27116	9.6	19
0	27117	9.6	19
0	27118	9.6	19
0	27119	9.6	19
0	27120	9.6	19
0	27121	9.6	19
0	27122	9.6	19
0	27123	9.6	19
0	27124	9.6	19
0	27125	9.6	19
0	27126	9.6	19
0	27127	9.6	19
0	27128	9.6	19
0	27129	9.6	19
0	27130	9.6	19
0	27131	9.6	19
0	27132	9.6	19
0	27133	9.6	19
0	27134	9.6	19
0	27135	9.6	19
0	27136	9.6	19
0	27137	9.6	19
0	27138	9.6	19
0	27139	9.6	19
0	27140	9.6	19
0	27141	9.6	19
0	27142	9.6	19
0	27143	9.6	19
0	27144	9.6	19
0	27145	9.6	19
0	27146	9.6	19
0	28154	9.8	19
0	28155	9.8	19
0	28156	9.8	19
0	28157	9.8	19
0	28158	9.8	19
0	28159	9.8	19
0	28160	9.8	19
0	28161	9.8	19
0	28162	9.8	19
0	28163	9.8	19
0	28164	9.8	19
0	28165	9.8	19
0	28166	9.8	19
0	28167	9.8	19
0	28168	9.8	19
0	28169	9.8	19
0	28170	9.8	19
0	28171	9.8	19
0	28172	9.8	19
0	28173	9.8	19
0	28174	9.8	19
0	28175	9.8	19
0	28176	9.8	19
0	28177	9.8	19
0	28178	9.8	19
0	28179	9.8	19
0	28180	9.8	19
0	28181	9.8	19
0	28182	9.8	19
0	28183	9.8	19
0	28184	9.8	19
0	28185	9.8	19
0	28186	9.8	19
0	28187	9.8	19
0	28188	9.8	19
0	28189	9.8	19
0	28190	9.8	19
0	28191	9.8	19
0	28192	9.8	19
0	28193	9.8	19
0	28194	9.8	19
0	28195	9.8	19
0	28196	9.8	19
0	28197	9.8	19
0	28198	9.8	19
0	28199	9.8	19
0	28200	9.8	20
0	28207	9.8	20
0	28210	9.8	20
0	28211	9.8	20
0	28212	9.8	21
0	28213	9.8	21
0	28214	9.8	21
0	28215	9.8	21
0	28216	9.8	21
0	28217	9.8	21
0	28218	9.8	21
0	28219	9.8	21
0	28220	9.8	21
0	28221	9.8	21
0	28222	9.8	21
0	28223	9.8	21
0	28224	9.8	21
0	28225	9.8	21
0	28226	9.8	21
0	28227	9.8	21
0	28228	9.8	21
0	28229	9.8	21
0	28230	9.8	21
0	28231	9.8	21
0	28232	9.8	21
0	28233	9.8	21
0	28234	9.8	21
0	28235	9.8	21
0	28236	9.8	21
0	28237	9.8	21
0	28238	9.8	21
0	28239	9.8	21
0	28240	9.8	21
0	28241	9.8	21
0	28242	9.8	21
0	28243	9.8	21
0	28244	9.8	21
0	28245	9.8	21
0	28246	9.8	21
0	28247	9.8	21
0	28248	9.8	21
0	28249	9.8	21
0	28250	9.8	21
0	28251	9.8	21
0	28252	9.8	21
0	28253	9.8	21
0	28254	9.8	21
0	28255	9.8	21
0	28256	9.8	21
0	28257	9.8	21
0	28258	9.8	21
0	28259	9.8	21
0	28260	9.8	21
0	28261	9.8	21
0	28960	10	21
0	28961	10	21
0	28962	10	21
0	28963	10	21
0	28964	10	21
0	28965	10	21
0	28966	10	21
0	28967	10	21
0	28968	10	21
0	28969	10	21
0	28970	10	21
0	28971	10	21
0	28972	10	21
0	28973	10	21
0	28974	10	21
0	28975	10	21
0	28976	10	21
0	28977	10	21
0	28978	10	21
0	28979	10	21
0	28980	10	21
0	28981	10	21
0	28982	10	21
0	28983	10	21
0	28984	10	21
0	28985	10	21
0	28986	10	21
0	28987	10	21
0	28988	10	21
0	28989	10	21
0	28990	10	21
0	28991	10	21
0	28992	10	21
0	28993	10	21
0	28994	10	21
0	28995	10	21
0	28996	10	21
0	28997	10	21
0	28998	10	21
0	28999	10	21
0	29000	10	21
0	29001	10	21
0	29002	10	21
0	29003	10	21
0	29004	10	21
0	29005	10	21
0	29006	10	21
0	29007	10	21
0	29008	10	21
0	29009	10	21
0	29010	10	21
0	29011	10	21
0	29012	10	21
0	29013	10	21
0	29014	10	21
0	29015	10	21
0	29016	10	21
0	29017	10	21
0	29018	10	21
0	29019	10	21
0	29020	10	21
0	29021	10	21
0	29022	10	21
0	29023	10	21
0	29048	10	21
0	29049	10	21
0	29050	10	21
0	29051	10	21
0	29052	10	21
0	29053	10	21
0	29054	10	21
0	29055	10	21
0	29056	10	21
0	29057	10	21
0	29058	10	21
0	29059	10	21
0	29060	10	21
0	29061	10	21
0	29062	10	21
0	29063	10	21
0	29064	10	21
0	29065	10	21
0	29066	10	21
0	29067	10	21
0	29068	10	21
0	29069	10	21
0	29070	10	21
0	29071	10	21
0	29072	10	21
0	29073	10	21
0	29074	10	21
0	29075	10	21
0	29076	10	21
0	29077	10	21
0	29078	10	21
0	29081	10	21
0	29082	10	21
0	29083	10	21
0	29084	10	21
0	29085	10	21
0	29086	10	21
0	29087	10	21
0	29088	10	21
0	29089	10	21
0	29090	10	21
0	29091	10	21
0	29092	10	21
0	29093	10	21
0	29094	10	21
0	29095	10	21
0	29096	10	21
0	29097	10	21
0	29098	10	21
0	29099	10	21
0	29100	10	21
0	29101	10	21
0	29102	10	21
0	29103	10	21
0	29104	10	21
0	29105	10	21
0	29106	10	21
0	29107	10	21
0	29108	10	21
0	29109	10	21
0	29110	10	21
0	29111	10	21
0	29112	10	21
0	29113	10	21
0	29114	10	21
0	29115	10	21
0	29116	10	21
0	29117	10	21
0	29118	10	21
0	29119	10	21
0	29120	10	21
0	29121	10	21
0	29122	10	21
0	29123	10	21
0	29124	10	21
0	29125	10	21
0	29126	10	21
0	29127	10	21
0	29128	10	21
0	29129	10	21
0	29130	10	21
0	29132	10	21
0	29494	10.1	21
0	29749	10.2	21
0	29754	10.2	21
0	29755	10.2	21
0	29756	10.2	21
0	29757	10.2	21
0	29758	10.2	21
0	29759	10.2	21
0	29760	10.2	21
0	29761	10.2	21
0	29762	10.2	21
0	29763	10.2	21
0	29764	10.2	21
0	29765	10.2	21
0	29766	10.2	21
0	29767	10.2	21
0	29768	10.2	21
0	29769	10.2	21
0	29770	10.2	21
0	29771	10.2	21
0	29772	10.2	21
0	29773	10.2	21
0	29774	10.2	21
0	29775	10.2	21
0	29776	10.2	21
0	29777	10.2	21
0	29778	10.2	21
0	29779	10.2	21
0	29780	10.2	21
0	29781	10.2	21
0	29782	10.2	21
0	29783	10.2	21
0	29784	10.2	21
0	29785	10.2	21
0	29786	10.2	21
0	29787	10.2	21
0	29788	10.2	21
0	29789	10.2	21
0	29790	10.2	21
0	29791	10.2	21
0	29792	10.2	21
0	29793	10.2	21
0	29794	10.2	21
0	29795	10.2	21
0	29796	10.2	21
0	29797	10.2	21
0	29798	10.2	21
0	29799	10.2	21
0	29800	10.2	21
0	29801	10.2	21
0	29802	10.2	21
0	29803	10.2	21
0	29804	10.2	21
0	29805	10.2	21
0	29806	10.2	21
0	29807	10.2	21
0	29808	10.2	21
0	29809	10.2	21
0	29810	10.2	21
0	29811	10.2	21
0	29812	10.2	21
0	29813	10.2	21
0	29814	10.2	21
0	29815	10.2	21
0	29816	10.2	21
0	29817	10.2	21
0	29818	10.2	21
0	29819	10.2	21
0	29820	10.2	21
0	29821	10.2	21
0	29822	10.2	21
0	29823	10.2	21
0	29824	10.2	21
0	29825	10.2	21
0	29826	10.2	21
0	29827	10.2	21
0	29828	10.2	21
0	29829	10.2	21
0	29830	10.2	21
0	29831	10.2	21
0	29832	10.2	21
0	29833	10.2	21
0	29834	10.2	21
0	29835	10.2	21
0	29836	10.2	21
0	29837	10.2	21
0	29838	10.2	21
0	29839	10.2	21
0	29840	10.2	21
0	29841	10.2	21
0	29842	10.2	21
0	29843	10.2	21
0	29844	10.2	21
0	29845	10.2	21
0	29846	10.2	21
0	29847	10.2	21
0	29848	10.2	21
0	29849	10.2	21
0	29850	10.2	21
0	29851	10.2	21
0	29852	10.2	21
0	29853	10.2	21
0	29854	10.2	21
0	29855	10.2	21
0	29856	10.2	21
0	29857	10.2	21
0	29858	10.2	21
0	29859	10.2	21
0	29862	10.2	21
0	29863	10.2	21
0	29864	10.2	21
0	29865	10.2	21
0	29866	10.2	21
0	29867	10.2	21
0	29868	10.2	21
0	29869	10.2	21
0	29870	10.2	21
0	29871	10.2	21
0	29872	10.2	21
0	29873	10.2	21
0	29874	10.2	21
0	29875	10.2	21
0	29876	10.2	21
0	29877	10.2	21
0	29878	10.2	21
0	29879	10.2	21
0	29880	10.2	21
0	29881	10.2	21
0	29882	10.2	21
0	29883	10.2	21
0	29884	10.2	21
0	29885	10.2	21
0	29886	10.2	21
0	29887	10.2	21
0	29888	10.2	21
0	29889	10.2	21
0	29890	10.2	21
0	29891	10.2	21
0	29892	10.2	21
0	29893	10.2	21
0	29894	10.2	21
0	29895	10.2	21
0	29896	10.2	21
0	29897	10.2	21
0	29898	10.2	21
0	29899	10.2	21
0	29900	10.2	21
0	29901	10.2	21
0	29902	10.2	21
0	29903	10.2	21
0	29904	10.2	21
0	29905	10.2	21
0	29906	10.2	21
0	29907	10.2	21
0	29908	10.2	21
0	29909	10.2	21
0	29910	10.2	21
0	29911	10.2	21
0	29912	10.2	21
0	30514	10.4	21
0	30515	10.4	21
0	30516	10.4	21
0	30517	10.4	21
0	30518	10.4	21
0	30519	10.4	21
0	30520	10.4	21
0	30521	10.4	21
0	30522	10.4	21
0	30523	10.4	21
0	30524	10.4	21
0	30525	10.4	21
0	30526	10.4	21
0	30527	10.4	21
0	30528	10.4	21
0	30529	10.4	21
0	30530	10.4	21
0	30531	10.4	21
0	30532	10.4	21
0	30533	10.4	21
0	30534	10.4	21
0	30535	10.4	21
0	30536	10.4	21
0	30537	10.4	21
0	30538	10.4	21
0	30539	10.4	21
0	30540	10.4	21
0	30541	10.4	21
0	30542	10.4	21
0	30543	10.4	21
0	30544	10.4	21
0	30545	10.4	21
0	30546	10.4	21
0	30547	10.4	21
0	30548	10.4	21
0	30549	10.4	21
0	30550	10.4	21
0	30551	10.4	21
0	30552	10.4	21
0	30553	10.4	21
0	30554	10.4	21
0	30555	10.4	21
0	30556	10.4	21
0	30557	10.4	21
0	30558	10.4	21
0	30559	10.4	21
0	30560	10.4	21
0	30561	10.4	21
0	30562	10.4	21
0	30563	10.4	21
0	30564	10.4	21
0	30565	10.4	21
0	30566	10.4	21
0	30567	10.4	21
0	30568	10.4	21
0	30569	10.4	21
0	30570	10.4	21
0	30571	10.4	21
0	30572	10.4	21
0	30573	10.4	21
0	30574	10.4	21
0	30575	10.4	21
0	30576	10.4	21
0	30577	10.4	21
0	30578	10.4	21
0	30579	10.4	21
0	30580	10.4	21
0	30581	10.4	21
0	30582	10.4	21
0	30583	10.4	21
0	30584	10.4	21
0	30585	10.4	21
0	30586	10.4	21
0	30587	10.4	21
0	30588	10.4	21
0	30589	10.4	21
0	30590	10.4	21
0	30591	10.4	21
0	30592	10.4	21
0	30593	10.4	21
0	30594	10.4	21
0	30595	10.4	21
0	30596	10.4	21
0	31336	10.6	21
0	31337	10.6	21
0	31338	10.6	21
0	31339	10.6	21
0	31340	10.6	21
0	31341	10.6	21
0	31342	10.6	21
0	31343	10.6	21
0	31344	10.6	21
0	31345	10.6	21
0	31346	10.6	21
0	31347	10.6	21
0	31348	10.6	21
0	31349	10.6	21
0	31350	10.6	21
0	31351	10.6	21
0	31352	10.6	21
0	31353	10.6	21
0	31354	10.6	21
0	31355	10.6	21
0	31356	10.6	21
0	31357	10.6	21
0	31358	10.6	21
0	31359	10.6	21
0	31360	10.6	21
0	31361	10.6	21
0	31362	10.6	21
0	31363	10.6	21
0	31364	10.6	21
0	31365	10.6	21
0	31366	10.6	21
0	31367	10.6	21
0	31368	10.6	21
0	31369	10.6	21
0	31370	10.6	21
0	31371	10.6	21
0	31372	10.6	21
0	31373	10.6	21
0	31374	10.6	21
0	31375	10.6	21
0	31376	10.6	21
0	31377	10.6	21
0	31378	10.6	21
0	31379	10.6	21
0	31380	10.6	21
0	31381	10.6	21
0	31382	10.6	21
0	31383	10.6	21
0	31384	10.6	21
0	31385	10.6	21
0	31386	10.6	21
0	31387	10.6	21
0	31388	10.6	21
0	31389	10.6	21
0	31390	10.6	21
0	31391	10.6	21
0	31392	10.6	21
0	31393	10.6	21
0	31394	10.6	21
0	31395	10.6	21
0	31396	10.6	21
0	31397	10.6	21
0	31398	10.6	21
0	31399	10.6	21
0	31400	10.6	21
0	31401	10.6	21
0	31402	10.6	21
0	31403	10.6	21
0	31404	10.6	21
0	31405	10.6	21
0	31406	10.6	21
0	31407	10.6	21
0	31408	10.6	21
0	31409	10.6	21
0	31410	10.6	21
0	31411	10.6	21
0	31412	10.6	21
0	31413	10.6	21
0	31414	10.6	21
0	31415	10.6	21
0	31416	10.6	21
0	31417	10.6	21
0	31418	10.6	21
0	31419	10.6	21
0	31420	10.6	21
0	31421	10.6	21
0	31422	10.6	21
0	31423	10.6	21
0	31424	10.6	21
0	31425	10.6	21
0	31426	10.6	21
0	31427	10.6	21
0	31428	10.6	21
0	31429	10.6	21
0	31430	10.6	21
0	31431	10.6	21
0	31432	10.6	21
0	31433	10.6	21
0	31434	10.6	21
0	31435	10.6	21
0	31436	10.6	21
0	31437	10.6	21
0	31438	10.6	21
0	31439	10.6	21
0	31440	10.6	21
0	31441	10.6	21
0	31442	10.6	21
0	31443	10.6	21
0	31444	10.6	21
0	31445	10.6	21
0	31446	10.6	21
0	31447	10.6	21
0	31448	10.6	21
0	31449	10.6	21
0	31450	10.6	21
0	31451	10.6	21
0	31452	10.6	21
0	31453	10.6	21
0	31454	10.6	21
0	31455	10.6	21
0	31456	10.6	21
0	31457	10.6	21
0	31458	10.6	21
0	31459	10.6	21
0	31460	10.6	21
0	31461	10.6	21
0	31462	10.6	21
0	31463	10.6	21
0	31464	10.6	21
0	31465	10.6	21
0	31466	10.6	21
0	31467	10.6	21
0	31468	10.6	21
0	31469	10.6	21
0	31470	10.6	21
0	31471	10.6	21
0	31478	10.6	21
0	31481	10.6	21
0	31482	10.6	21
0	31483	10.6	22
0	31484	10.6	22
0	31485	10.6	22
0	31486	10.6	22
0	31487	10.6	22
0	31488	10.6	22
0	31489	10.6	22
0	31490	10.6	22
0	31491	10.6	22
0	31492	10.6	22
0	31493	10.6	22
0	31494	10.6	22
0	31495	10.6	22
0	31496	10.6	22
0	31497	10.6	22
0	31498	10.6	22
0	31499	10.6	22
0	31500	10.6	22
0	31501	10.6	22
0	31502	10.6	22
0	31503	10.6	22
0	31504	10.6	22
0	31505	10.6	22
0	31506	10.6	22
0	31507	10.6	22
0	31508	10.6	22
0	31509	10.6	22
0	31510	10.6	22
0	31511	10.6	22
0	31512	10.6	22
0	31513	10.6	22
0	31514	10.6	22
0	31515	10.6	22
0	31516	10.6	22
0	31517	10.6	22
0	31518	10.6	22
0	31519	10.6	22
0	31520	10.6	22
0	31521	10.6	22
0	31522	10.6	22
0	31523	10.6	22
0	31524	10.6	22
0	31525	10.6	22
0	31526	10.6	22
0	31527	10.6	22
0	31528	10.6	22
0	31529	10.6	22
0	31530	10.6	22
0	31531	10.6	22
0	31532	10.6	22
0	32154	10.8	22
0	32155	10.8	22
0	32156	10.8	22
0	32157	10.8	22
0	32158	10.8	22
0	32159	10.8	22
0	32160	10.8	22
0	32161	10.8	22
0	32162	10.8	22
0	32163	10.8	22
0	32164	10.8	22
0	32165	10.8	22
0	32166	10.8	22
0	32167	10.8	22
0	32168	10.8	22
0	32169	10.8	22
0	32170	10.8	22
0	32171	10.8	22
0	32172	10.8	22
0	32173	10.8	22
0	32174	10.8	22
0	32175	10.8	22
0	32176	10.8	22
0	32177	10.8	22
0	32178	10.8	22
0	32179	10.8	22
0	32180	10.8	22
0	32181	10.8	22
0	32182	10.8	22
0	32183	10.8	22
0	32184	10.8	22
0	32185	10.8	22
0	32186	10.8	22
0	32187	10.8	22
0	32188	10.8	22
0	32189	10.8	22
0	32190	10.8	22
0	32191	10.8	22
0	32192	10.8	22
0	32193	10.8	22
0	32194	10.8	22
0	32195	10.8	22
0	32196	10.8	22
0	32197	10.8	22
0	32198	10.8	22
0	32199	10.8	22
0	32200	10.8	22
0	32201	10.8	22
0	32202	10.8	22
0	32203	10.8	22
0	32204	10.8	22
0	32205	10.8	22
0	32206	10.8	22
0	32207	10.8	22
0	32208	10.8	22
0	32209	10.8	22
0	32210	10.8	22
0	32211	10.8	22
0	32212	10.8	22
0	32213	10.8	22
0	32214	10.8	22
0	32215	10.8	22
0	32216	10.8	22
0	32217	10.8	22
0	32218	10.8	22
0	32219	10.8	22
0	32220	10.8	22
0	32242	10.8	22
0	32243	10.8	22
0	32244	10.8	22
0	32245	10.8	22
0	32246	10.8	22
0	32247	10.8	22
0	32248	10.8	22
0	32249	10.8	22
0	32250	10.8	22
0	32251	10.8	22
0	32252	10.8	22
0	32253	10.8	22
0	32254	10.8	22
0	32255	10.8	22
0	32256	10.8	22
0	32257	10.8	22
0	32258	10.8	22
0	32259	10.8	22
0	32260	10.8	22
0	32261	10.8	22
0	32262	10.8	22
0	32263	10.8	22
0	32264	10.8	22
0	32265	10.8	22
0	32266	10.8	22
0	32267	10.8	22
0	32268	10.8	22
0	32269	10.8	22
0	32270	10.8	22
0	32271	10.8	22
0	32272	10.8	22
0	32275	10.8	22
0	32276	10.8	22
0	32277	10.8	22
0	32278	10.8	22
0	32279	10.8	22
0	32280	10.8	22
0	32281	10.8	22
0	32282	10.8	22
0	32283	10.8	22
0	32284	10.8	22
0	32285	10.8	22
0	32286	10.8	22
0	32287	10.8	22
0	32288	10.8	22
0	32289	10.8	22
0	32290	10.8	22
0	32291	10.8	22
0	32292	10.8	22
0	32293	10.8	22
0	32294	10.8	22
0	32295	10.8	22
0	32296	10.8	22
0	32297	10.8	22
0	32298	10.8	22
0	32299	10.8	22
0	32300	10.8	22
0	32301	10.8	22
0	32302	10.8	22
0	32303	10.8	22
0	32304	10.8	22
0	32305	10.8	22
0	32306	10.8	22
0	32307	10.8	22
0	32308	10.8	22
0	32309	10.8	22
0	32310	10.8	22
0	32311	10.8	22
0	32312	10.8	22
0	32313	10.8	22
0	32314	10.8	22
0	32315	10.8	22
0	32316	10.8	22
0	32317	10.8	22
0	32318	10.8	22
0	32319	10.8	22
0	32320	10.8	22
0	32321	10.8	22
0	32322	10.8	22
0	32323	10.8	22
0	32324	10.8	22
0	32326	10.8	22
0	32809	10.9	22
0	33110	11	22
0	33111	11	22
0	33112	11	22
0	33113	11	22
0	33114	11	22
0	33115	11	22
0	33116	11	22
0	33117	11	22
0	33118	11	22
0	33119	11	22
0	33120	11	22
0	33121	11	22
0	33122	11	22
0	33123	11	22
0	33124	11	22
0	33125	11	22
0	33126	11	22
0	33127	11	22
0	33128	11	22
0	33129	11	22
0	33130	11	22
0	33131	11	22
0	33132	11	22
0	33133	11	22
0	33134	11	22
0	33135	11	22
0	33136	11	22
0	33137	11	22
0	33138	11	22
0	33139	11	22
0	33140	11	22
0	33141	11	22
0	33142	11	22
0	33143	11	22
0	33144	11	22
0	33145	11	22
0	33146	11	22
0	33147	11	22
0	33148	11	22
0	33149	11	22
0	33150	11	22
0	33151	11	22
0	33152	11	22
0	33153	11	22
0	33154	11	22
0	33155	11	22
0	33163	11	22
0	33168	11	22
0	33169	11	22
0	33170	11	22
0	33171	11	22
0	33172	11	22
0	33173	11	22
0	33174	11	22
0	33175	11	22
0	33176	11	22
0	33177	11	22
0	33178	11	22
0	33179	11	22
0	33180	11	22
0	33181	11	22
0	33182	11	22
0	33183	11	22
0	33184	11	22
0	33185	11	22
0	33186	11	22
0	33187	11	22
0	33188	11	22
0	33189	11	22
0	33190	11	22
0	33191	11	22
0	33192	11	22
0	33193	11	22
0	33194	11	22
0	33195	11	22
0	33196	11	22
0	33197	11	22
0	33198	11	22
0	33199	11	22
0	33200	11	22
0	33201	11	22
0	33202	11	22
0	33203	11	22
0	33204	11	22
0	33205	11	22
0	33206	11	22
0	33207	11	22
0	33208	11	22
0	33209	11	22