version 3
run Tictoc3-0-20240301-17:11:43-16409
attr configname Tictoc3
attr datetime 20240301-17:11:43
attr datetimef 20240301-171143
attr experiment Tictoc3
attr inifile omnetpp.ini
attr iterationvars ""
attr iterationvarsd ""
attr iterationvarsf ""
attr measurement ""
attr network Tictoc3
attr processid 16409
attr repetition 0
attr replication #0
attr resultdir results
attr runnumber 0
attr seedset 0
config network Tictoc3

vector 0 Tictoc3.peer[0] HopCount ETV
vector 1 Tictoc3.peer[1] HopCount ETV
vector 2 Tictoc3.peer[2] HopCount ETV
vector 3 Tictoc3.peer[3] HopCount ETV
vector 4 Tictoc3.peer[4] HopCount ETV
vector 5 Tictoc3.peer[5] HopCount ETV
vector 6 Tictoc3.peer[6] HopCount ETV
vector 7 Tictoc3.peer[7] HopCount ETV
vector 8 Tictoc3.peer[8] HopCount ETV
vector 9 Tictoc3.peer[9] HopCount ETV
vector 10 Tictoc3.peer[10] HopCount ETV
vector 11 Tictoc3.peer[11] HopCount ETV
vector 12 Tictoc3.peer[12] HopCount ETV
vector 13 Tictoc3.peer[13] HopCount ETV
vector 14 Tictoc3.peer[14] HopCount ETV
vector 15 Tictoc3.peer[15] HopCount ETV
vector 16 Tictoc3.peer[16] HopCount ETV
vector 17 Tictoc3.peer[17] HopCount ETV
vector 18 Tictoc3.peer[18] HopCount ETV
vector 19 Tictoc3.peer[19] HopCount ETV
vector 20 Tictoc3.peer[20] HopCount ETV
vector 21 Tictoc3.peer[21] HopCount ETV
vector 22 Tictoc3.peer[22] HopCount ETV
vector 23 Tictoc3.peer[23] HopCount ETV
vector 24 Tictoc3.peer[24] HopCount ETV
vector 25 Tictoc3.peer[25] HopCount ETV
vector 26 Tictoc3.peer[26] HopCount ETV
vector 27 Tictoc3.peer[27] HopCount ETV
vector 28 Tictoc3.peer[28] HopCount ETV
vector 29 Tictoc3.peer[29] HopCount ETV
vector 30 Tictoc3.peer[30] HopCount ETV
vector 31 Tictoc3.peer[31] HopCount ETV
vector 32 Tictoc3.peer[32] HopCount ETV
vector 33 Tictoc3.peer[33] HopCount ETV
vector 34 Tictoc3.peer[34] HopCount ETV
vector 35 Tictoc3.peer[35] HopCount ETV
vector 36 Tictoc3.peer[36] HopCount ETV
vector 37 Tictoc3.peer[37] HopCount ETV
vector 38 Tictoc3.peer[38] HopCount ETV
vector 39 Tictoc3.peer[39] HopCount ETV
vector 40 Tictoc3.peer[40] HopCount ETV
vector 41 Tictoc3.peer[41] HopCount ETV
vector 42 Tictoc3.peer[42] HopCount ETV
vector 43 Tictoc3.peer[43] HopCount ETV
vector 44 Tictoc3.peer[44] HopCount ETV
vector 45 Tictoc3.peer[45] HopCount ETV
vector 46 Tictoc3.peer[46] HopCount ETV
vector 47 Tictoc3.peer[47] HopCount ETV
vector 48 Tictoc3.peer[48] HopCount ETV
vector 49 Tictoc3.peer[49] HopCount ETV
vector 50 Tictoc3.peer[50] HopCount ETV
vector 51 Tictoc3.peer[51] HopCount ETV
vector 52 Tictoc3.peer[52] HopCount ETV
vector 53 Tictoc3.peer[53] HopCount ETV
vector 54 Tictoc3.peer[54] HopCount ETV
vector 55 Tictoc3.peer[55] HopCount ETV
vector 56 Tictoc3.peer[56] HopCount ETV
vector 57 Tictoc3.peer[57] HopCount ETV
vector 58 Tictoc3.peer[58] HopCount ETV
vector 59 Tictoc3.peer[59] HopCount ETV
vector 60 Tictoc3.peer[60] HopCount ETV
vector 61 Tictoc3.peer[61] HopCount ETV
vector 62 Tictoc3.peer[62] HopCount ETV
vector 63 Tictoc3.peer[63] HopCount ETV
vector 64 Tictoc3.peer[64] HopCount ETV
vector 65 Tictoc3.peer[65] HopCount ETV
vector 66 Tictoc3.peer[66] HopCount ETV
vector 67 Tictoc3.peer[67] HopCount ETV
vector 68 Tictoc3.peer[68] HopCount ETV
vector 69 Tictoc3.peer[69] HopCount ETV
vector 70 Tictoc3.peer[70] HopCount ETV
vector 71 Tictoc3.peer[71] HopCount ETV
vector 72 Tictoc3.peer[72] HopCount ETV
vector 73 Tictoc3.peer[73] HopCount ETV
vector 74 Tictoc3.peer[74] HopCount ETV
vector 75 Tictoc3.peer[75] HopCount ETV
vector 76 Tictoc3.peer[76] HopCount ETV
vector 77 Tictoc3.peer[77] HopCount ETV
vector 78 Tictoc3.peer[78] HopCount ETV
vector 79 Tictoc3.peer[79] HopCount ETV
vector 80 Tictoc3.peer[80] HopCount ETV
vector 81 Tictoc3.peer[81] HopCount ETV
vector 82 Tictoc3.peer[82] HopCount ETV
vector 83 Tictoc3.peer[83] HopCount ETV
vector 84 Tictoc3.peer[84] HopCount ETV
vector 85 Tictoc3.peer[85] HopCount ETV
vector 86 Tictoc3.peer[86] HopCount ETV
vector 87 Tictoc3.peer[87] HopCount ETV
vector 88 Tictoc3.peer[88] HopCount ETV
vector 89 Tictoc3.peer[89] HopCount ETV
vector 90 Tictoc3.peer[90] HopCount ETV
vector 91 Tictoc3.peer[91] HopCount ETV
vector 92 Tictoc3.peer[92] HopCount ETV
vector 93 Tictoc3.peer[93] HopCount ETV
vector 94 Tictoc3.peer[94] HopCount ETV
vector 95 Tictoc3.peer[95] HopCount ETV
vector 96 Tictoc3.peer[96] HopCount ETV
vector 97 Tictoc3.peer[97] HopCount ETV
vector 98 Tictoc3.peer[98] HopCount ETV
vector 99 Tictoc3.peer[99] HopCount ETV
vector 100 Tictoc3.peer[100] HopCount ETV
vector 101 Tictoc3.peer[101] HopCount ETV
vector 102 Tictoc3.peer[102] HopCount ETV
vector 103 Tictoc3.peer[103] HopCount ETV
vector 104 Tictoc3.peer[104] HopCount ETV
vector 105 Tictoc3.peer[105] HopCount ETV
vector 106 Tictoc3.peer[106] HopCount ETV
vector 107 Tictoc3.peer[107] HopCount ETV
vector 108 Tictoc3.peer[108] HopCount ETV
vector 109 Tictoc3.peer[109] HopCount ETV
vector 110 Tictoc3.peer[110] HopCount ETV
vector 111 Tictoc3.peer[111] HopCount ETV
vector 112 Tictoc3.peer[112] HopCount ETV
vector 113 Tictoc3.peer[113] HopCount ETV
vector 114 Tictoc3.peer[114] HopCount ETV
vector 115 Tictoc3.peer[115] HopCount ETV
vector 116 Tictoc3.peer[116] HopCount ETV
vector 117 Tictoc3.peer[117] HopCount ETV
vector 118 Tictoc3.peer[118] HopCount ETV
vector 119 Tictoc3.peer[119] HopCount ETV
vector 120 Tictoc3.peer[120] HopCount ETV
vector 121 Tictoc3.peer[121] HopCount ETV
vector 122 Tictoc3.peer[122] HopCount ETV
vector 123 Tictoc3.peer[123] HopCount ETV
vector 124 Tictoc3.peer[124] HopCount ETV
vector 125 Tictoc3.peer[125] HopCount ETV
vector 126 Tictoc3.peer[126] HopCount ETV
vector 127 Tictoc3.peer[127] HopCount ETV
vector 128 Tictoc3.peer[128] HopCount ETV
vector 129 Tictoc3.peer[129] HopCount ETV
vector 130 Tictoc3.peer[130] HopCount ETV
vector 131 Tictoc3.peer[131] HopCount ETV
vector 132 Tictoc3.peer[132] HopCount ETV
vector 133 Tictoc3.peer[133] HopCount ETV
vector 134 Tictoc3.peer[134] HopCount ETV
vector 135 Tictoc3.peer[135] HopCount ETV
vector 136 Tictoc3.peer[136] HopCount ETV
vector 137 Tictoc3.peer[137] HopCount ETV
vector 138 Tictoc3.peer[138] HopCount ETV
vector 139 Tictoc3.peer[139] HopCount ETV
vector 140 Tictoc3.peer[140] HopCount ETV
vector 141 Tictoc3.peer[141] HopCount ETV
vector 142 Tictoc3.peer[142] HopCount ETV
vector 143 Tictoc3.peer[143] HopCount ETV
vector 144 Tictoc3.peer[144] HopCount ETV
vector 145 Tictoc3.peer[145] HopCount ETV
vector 146 Tictoc3.peer[146] HopCount ETV
vector 147 Tictoc3.peer[147] HopCount ETV
vector 148 Tictoc3.peer[148] HopCount ETV
vector 149 Tictoc3.peer[149] HopCount ETV
0	2851	1.5	1
0	4336	2	2
0	5956	2.5	3
0	7441	3.1	4
0	8776	3.7	5
0	10261	4.3	6
0	11596	4.9	7
0	13076	5.5	8
0	14411	6.1	9
0	15896	6.7	10
0	17231	7.3	11
0	18716	7.9	12
0	20046	8.5	13
0	21531	9.1	14
0	22866	9.7	15
0	24357	10.3	16
0	25707	10.9	17
0	27197	11.5	18
1	2852	1.5	1
1	4337	2	2
1	5957	2.5	3
1	6106	2.6	4
1	7442	3.1	4
1	7591	3.2	5
1	8777	3.7	6
1	8926	3.8	6
1	10262	4.3	7
1	10411	4.4	8
1	11597	4.9	9
1	11741	5	10
1	13077	5.5	11
1	13226	5.6	12
1	14412	6.1	13
1	14561	6.2	14
1	15897	6.7	15
1	16046	6.8	16
1	17232	7.3	17
1	17381	7.4	18
1	18717	7.9	19
1	18861	8	20
1	20047	8.5	21
1	20196	8.6	22
1	21532	9.1	23
1	21681	9.2	24
1	22867	9.7	25
1	23016	9.8	26
1	24358	10.3	27
1	24519	10.4	28
1	25708	10.9	29
1	25859	11	30
1	27198	11.5	31
1	27360	11.6	32
1	28679	12.2	33
1	29097	12.3	34
1	30144	12.8	35
1	30963	13.1	36
1	31375	13.3	37
1	32249	13.7	38
1	32399	13.8	39
1	33635	14.3	40
1	33776	14.4	41
1	34835	14.9	42
1	35001	15	43
1	36201	15.5	44
1	37404	16.1	45
1	38721	16.7	46
1	39700	17.2	47
1	39852	17.3	47
1	41114	17.9	48
1	41248	18	49
1	42221	18.5	49
1	42768	18.8	50
1	43462	19.1	51
1	44419	19.6	51
1	44575	19.7	52
1	45797	20.3	53
1	45936	20.4	54
1	46894	20.9	54
1	47418	21.2	55
1	48074	21.5	56
1	48956	22	56
1	49114	22.1	57
1	50019	22.6	58
1	50288	22.7	59
1	51174	23.2	60
1	51324	23.3	61
1	52197	23.8	62
1	52455	23.9	63
1	53320	24.4	64
1	53481	24.5	65
1	54331	25	66
1	54583	25.1	67
1	55433	25.6	68
1	55588	25.7	69
1	56401	26.2	70
1	56654	26.3	71
1	57458	26.8	72
1	57598	26.9	73
1	58420	27.4	74
1	58665	27.5	75
1	59429	28	76
1	59557	28.1	77
1	60317	28.6	78
1	60557	28.7	79
1	61269	29.2	80
1	61383	29.3	81
1	62079	29.8	82
1	62294	29.9	83
1	62982	30.4	84
1	63104	30.5	85
1	63746	31	86
1	63933	31.1	87
1	64549	31.6	88
1	64656	31.7	89
1	65239	32.2	90
1	65420	32.3	91
1	65984	32.8	92
1	66083	32.9	93
1	66638	33.4	94
1	66811	33.5	95
1	67309	34	96
1	67383	34.1	97
1	67840	34.6	98
1	67980	34.7	99
1	68359	35.2	100
1	68414	35.3	100
2	2853	1.5	1
2	4338	2	2
2	5958	2.5	3
2	6107	2.6	4
2	7443	3.1	4
2	7592	3.2	5
2	8778	3.7	6
2	8927	3.8	6
2	10263	4.3	7
2	10412	4.4	8
2	11598	4.9	9
2	11742	5	10
2	13078	5.5	11
2	13227	5.6	12
2	14413	6.1	13
2	14562	6.2	14
2	15898	6.7	15
2	16047	6.8	16
2	17233	7.3	17
2	17382	7.4	18
2	18718	7.9	19
2	18862	8	20
2	20048	8.5	21
2	20197	8.6	22
2	21533	9.1	23
2	21682	9.2	24
2	22868	9.7	25
2	23017	9.8	26
2	24359	10.3	27
2	24520	10.4	28
2	25709	10.9	29
2	25860	11	30
2	27199	11.5	31
2	27361	11.6	32
2	28524	12.1	33
2	29372	12.4	34
2	30000	12.7	35
3	2854	1.5	1
3	4339	2	2
3	5959	2.5	3
3	6108	2.6	4
3	7444	3.1	4
3	7593	3.2	5
3	8779	3.7	6
3	8928	3.8	6
3	10264	4.3	7
3	10413	4.4	8
3	11599	4.9	9
3	11743	5	10
3	13079	5.5	11
3	13228	5.6	12
3	14414	6.1	13
3	14563	6.2	14
3	15899	6.7	15
3	16048	6.8	16
3	17234	7.3	17
3	17383	7.4	18
3	18719	7.9	19
3	18863	8	20
3	20049	8.5	21
3	20198	8.6	22
3	21534	9.1	23
3	21683	9.2	24
3	22869	9.7	25
3	23018	9.8	26
3	24360	10.3	27
3	24521	10.4	28
3	25710	10.9	29
3	25861	11	30
3	27200	11.5	31
3	27362	11.6	32
3	28525	12.1	33
3	28680	12.2	34
3	30001	12.7	35
3	30145	12.8	36
3	31269	13.3	37
3	31425	13.4	38
3	32685	13.9	39
3	32830	14	40
3	34071	14.6	41
3	34452	14.7	42
3	35434	15.2	43
3	36195	15.5	44
3	36664	15.8	45
3	37819	16.3	46
3	38432	16.6	47
3	39482	17.1	48
3	39999	17.4	49
3	41107	17.9	50
3	41538	18.2	51
3	42632	18.7	52
3	43173	19	53
3	44223	19.5	54
3	44710	19.8	55
3	45790	20.3	56
3	46237	20.6	57
3	47284	21.1	58
3	47786	21.4	59
3	48784	21.9	60
3	49247	22.2	61
3	50281	22.7	62
3	50689	23	63
3	51712	23.5	64
3	52180	23.8	65
3	53148	24.3	66
3	53614	24.6	67
3	54569	25.1	68
3	54983	25.4	69
3	55952	25.9	70
3	56382	26.2	71
3	57308	26.7	72
3	57452	26.8	73
3	58415	27.4	74
3	58651	27.5	75
3	59424	28	76
3	59907	28.3	77
3	60312	28.6	78
3	61131	29.1	79
3	61264	29.2	80
3	62074	29.8	81
3	62280	29.9	82
3	62978	30.4	83
3	63414	30.7	84
3	63742	31	85
3	64435	31.5	86
3	64545	31.6	87
3	65235	32.2	88
3	65405	32.3	89
3	65980	32.8	90
3	66348	33.1	91
3	66634	33.4	92
3	67218	33.9	93
3	67305	34	94
3	67836	34.6	95
3	67969	34.7	96
3	68357	35.2	97
3	68571	35.5	98
3	68734	35.8	99
3	69044	36.3	100
3	69092	36.4	100
4	2855	1.5	1
4	4340	2	2
4	5960	2.5	3
4	6109	2.6	4
4	7445	3.1	4
4	7594	3.2	5
4	8780	3.7	6
4	8929	3.8	6
4	10265	4.3	7
4	10414	4.4	8
4	11600	4.9	9
4	11744	5	10
4	13080	5.5	11
4	13229	5.6	12
4	14415	6.1	13
4	14564	6.2	14
4	15900	6.7	15
4	16049	6.8	16
4	17235	7.3	17
4	17384	7.4	18
4	18720	7.9	19
4	18864	8	20
4	20050	8.5	21
4	20199	8.6	22
4	21535	9.1	23
4	21684	9.2	24
4	22870	9.7	25
4	23019	9.8	26
4	24361	10.3	27
4	24522	10.4	28
4	25711	10.9	29
4	25862	11	30
4	27201	11.5	31
4	27363	11.6	32
4	28526	12.1	33
4	28681	12.2	34
4	30002	12.7	35
4	30146	12.8	36
4	31270	13.3	37
4	31426	13.4	38
4	32686	13.9	39
4	32831	14	40
4	33920	14.5	41
4	34680	14.8	42
4	35292	15.1	43
4	36342	15.6	44
4	36508	15.7	45
4	37973	16.4	46
4	38203	16.5	47
4	39691	17.2	48
4	39847	17.3	49
4	41239	18	50
4	41392	18.1	51
4	42759	18.8	52
4	42969	18.9	53
4	44412	19.6	54
4	44569	19.7	55
4	45929	20.4	56
4	46088	20.5	57
4	47411	21.2	58
4	47602	21.3	59
4	48951	22	60
4	49101	22.1	61
4	50409	22.8	62
4	50559	22.9	63
4	51838	23.6	64
4	52029	23.7	65
4	53305	24.4	66
4	53467	24.5	67
4	54702	25.2	68
4	54859	25.3	69
4	56064	26	70
4	56239	26.1	71
4	57314	26.7	72
4	57440	26.8	73
4	58262	27.3	73
4	58771	27.6	74
4	59285	27.9	75
4	60017	28.4	75
4	60175	28.5	76
4	61135	29.1	77
4	61244	29.2	78
4	61968	29.7	78
4	62401	30	79
4	62860	30.3	80
4	63497	30.8	80
4	63629	30.9	81
4	64442	31.5	82
4	64524	31.6	83
4	65140	32.1	83
4	65505	32.4	84
4	65900	32.7	85
4	66430	33.2	85
4	66538	33.3	86
4	67224	33.9	87
4	67285	34	88
4	67774	34.5	88
4	68034	34.8	89
4	68299	35.1	90
4	68614	35.6	90
4	68679	35.7	91
4	69047	36.3	92
4	69079	36.4	93
4	69336	36.9	93
4	69460	37.2	94
4	69588	37.5	95
4	69726	38	95
4	69748	38.1	96
4	69898	38.7	97
4	69915	38.8	98
4	70010	39.3	98
4	70058	39.6	99
4	70121	39.9	100
4	70176	40.4	100
5	2856	1.5	1
5	4341	2	2
5	5961	2.5	3
5	6110	2.6	4
5	7446	3.1	4
5	7595	3.2	5
5	8781	3.7	6
5	8930	3.8	6
5	10266	4.3	7
5	10415	4.4	8
5	11601	4.9	9
5	11745	5	10
5	13081	5.5	11
5	13230	5.6	12
5	14416	6.1	13
5	14565	6.2	14
5	15901	6.7	15
5	16050	6.8	16
5	17236	7.3	17
5	17385	7.4	18
5	18721	7.9	19
5	18865	8	20
5	20051	8.5	21
5	20200	8.6	22
5	21536	9.1	23
5	21685	9.2	24
5	22871	9.7	25
5	23020	9.8	26
5	24362	10.3	27
5	24523	10.4	28
5	25712	10.9	29
5	25863	11	30
5	27202	11.5	31
5	27364	11.6	32
5	28527	12.1	33
5	28682	12.2	34
5	30003	12.7	35
5	30147	12.8	36
5	31271	13.3	37
5	31427	13.4	38
5	32687	13.9	39
5	32832	14	40
5	33921	14.5	41
5	34072	14.6	42
5	35293	15.1	43
5	35435	15.2	44
5	36509	15.7	45
5	36665	15.8	46
5	37980	16.4	47
5	38204	16.5	48
5	39143	17	49
5	39848	17.3	50
5	40838	17.8	51
5	41393	18.1	52
5	42358	18.6	53
5	42970	18.9	54
5	43897	19.4	55
5	44570	19.7	56
5	45526	20.2	57
5	46089	20.5	58
5	47025	21	59
5	47603	21.3	60
5	48492	21.8	61
6	2857	1.5	1
6	4342	2	2
6	5962	2.5	3
6	6111	2.6	4
6	7447	3.1	4
6	7596	3.2	5
6	8782	3.7	6
6	8931	3.8	6
6	10267	4.3	7
6	10416	4.4	8
6	11602	4.9	9
6	11746	5	10
6	13082	5.5	11
6	13231	5.6	12
6	14417	6.1	13
6	14566	6.2	14
6	15902	6.7	15
6	16051	6.8	16
6	17237	7.3	17
6	17386	7.4	18
6	18722	7.9	19
6	18866	8	20
6	20052	8.5	21
6	20201	8.6	22
6	21537	9.1	23
6	21686	9.2	24
6	22872	9.7	25
6	23021	9.8	26
6	24363	10.3	27
6	24524	10.4	28
6	25713	10.9	29
6	25864	11	30
6	27203	11.5	31
6	27365	11.6	32
6	28528	12.1	33
6	28683	12.2	34
6	30004	12.7	35
6	30148	12.8	36
6	31272	13.3	37
6	31428	13.4	38
6	32688	13.9	39
6	32833	14	40
6	33922	14.5	41
6	34073	14.6	42
6	35294	15.1	43
6	35436	15.2	44
6	36510	15.7	45
6	36666	15.8	46
6	37825	16.3	47
6	38433	16.6	48
6	39001	16.9	49
6	40000	17.4	50
6	40647	17.7	51
6	41539	18.2	52
6	42217	18.5	53
6	43174	19	54
6	43749	19.3	55
6	44711	19.8	56
6	45337	20.1	57
6	46238	20.6	58
6	46889	20.9	59
6	47787	21.4	60
6	48374	21.7	61
6	49248	22.2	62
6	49847	22.5	63
6	50418	22.8	64
6	51002	23.1	65
6	51458	23.4	66
6	52038	23.7	67
6	52597	24	68
6	53155	24.3	69
6	53627	24.6	70
6	54177	24.9	71
6	54718	25.2	72
6	55278	25.5	73
6	55710	25.8	74
6	56245	26.1	75
6	56782	26.4	76
6	57316	26.7	77
6	57742	27	78
6	58264	27.3	79
6	59286	27.9	80
6	60176	28.5	81
6	61136	29.1	82
6	61258	29.2	82
6	61969	29.7	83
6	62414	30	84
6	62861	30.3	85
6	63509	30.8	86
6	63630	30.9	87
6	64443	31.5	88
6	64536	31.6	89
6	65141	32.1	89
6	65517	32.4	90
6	65901	32.7	91
6	66442	33.2	91
6	66539	33.3	92
6	67225	33.9	93
6	67297	34	94
6	67775	34.5	94
6	68045	34.8	95
6	68300	35.1	96
6	68623	35.6	96
6	68680	35.7	97
6	69048	36.3	98
6	69086	36.4	99
6	69337	36.9	99
6	69467	37.2	99
6	69589	37.5	100
6	69732	38	100
7	2858	1.5	1
7	4343	2	2
7	5963	2.5	3
7	6112	2.6	4
7	7448	3.1	4
7	7597	3.2	5
7	8783	3.7	6
7	8932	3.8	6
7	10268	4.3	7
7	10417	4.4	8
7	11603	4.9	9
7	11747	5	10
7	13083	5.5	11
7	13232	5.6	12
7	14418	6.1	13
7	14567	6.2	14
7	15903	6.7	15
7	16052	6.8	16
7	17238	7.3	17
7	17387	7.4	18
7	18723	7.9	19
7	18867	8	20
7	20053	8.5	21
7	20202	8.6	22
7	21538	9.1	23
7	21687	9.2	24
7	22873	9.7	25
7	23022	9.8	26
7	24364	10.3	27
7	24525	10.4	28
7	25714	10.9	29
7	25865	11	30
7	27204	11.5	31
7	27366	11.6	32
7	28529	12.1	33
7	28684	12.2	34
7	30005	12.7	35
7	30149	12.8	36
7	31273	13.3	37
7	31429	13.4	38
7	32689	13.9	39
8	2859	1.5	1
8	4344	2	2
8	5964	2.5	3
8	6113	2.6	4
8	7449	3.1	4
8	7598	3.2	5
8	8784	3.7	6
8	8933	3.8	6
8	10269	4.3	7
8	10418	4.4	8
8	11604	4.9	9
8	11748	5	10
8	13084	5.5	11
8	13233	5.6	12
8	14419	6.1	13
8	14568	6.2	14
8	15904	6.7	15
8	16053	6.8	16
8	17239	7.3	17
8	17388	7.4	18
8	18724	7.9	19
8	18868	8	20
8	20054	8.5	21
8	20203	8.6	22
8	21539	9.1	23
8	21688	9.2	24
8	22874	9.7	25
8	23023	9.8	26
8	24365	10.3	27
8	24526	10.4	28
8	25715	10.9	29
8	25866	11	30
8	27205	11.5	31
8	27367	11.6	32
8	28530	12.1	33
8	28685	12.2	34
8	30006	12.7	35
8	30150	12.8	36
8	31274	13.3	37
8	31430	13.4	38
8	32690	13.9	39
8	32835	14	40
8	33778	14.4	41
8	34011	14.5	42
8	34837	14.9	43
8	35005	15	44
8	35911	15.4	45
8	36203	15.5	46
8	37029	15.9	47
8	37258	16	48
8	38050	16.4	49
8	38209	16.5	50
8	39071	16.9	51
8	39490	17.1	52
8	40010	17.4	53
8	40652	17.7	54
8	41116	17.9	55
8	41878	18.3	56
8	42223	18.5	57
8	42975	18.9	58
8	43464	19.1	59
8	44232	19.5	60
8	44577	19.7	61
8	45342	20.1	62
8	45799	20.3	63
8	46576	20.7	64
8	46896	20.9	65
8	47615	21.3	66
8	48076	21.5	67
8	49116	22.1	68
8	50290	22.7	69
8	51171	23.2	70
8	51326	23.3	70
8	52457	23.9	71
8	52593	24	72
8	53483	24.5	72
8	54585	25.1	73
8	55590	25.7	74
8	56115	26	75
8	56656	26.3	75
8	57079	26.6	76
8	57600	26.9	77
8	58139	27.2	77
8	58667	27.5	78
8	59063	27.8	79
8	59559	28.1	80
8	60048	28.4	81
8	60559	28.7	82
8	60922	29	83
8	61385	29.3	84
8	61842	29.6	85
8	62098	29.8	86
8	62658	30.2	87
8	62869	30.3	88
8	63520	30.8	89
8	63527	30.8	90
8	64156	31.3	91
8	64240	31.4	92
8	64762	31.8	92
8	65040	32	93
8	65423	32.3	94
8	65720	32.6	94
8	66000	32.8	95
8	66450	33.2	96
8	66544	33.3	97
8	67059	33.8	98
8	67065	33.8	99
8	67628	34.3	99
8	67690	34.4	100
8	68055	34.8	100
9	2860	1.5	1
9	4345	2	2
9	5965	2.5	3
9	6114	2.6	4
9	7450	3.1	4
9	7599	3.2	5
9	8785	3.7	6
9	8934	3.8	6
9	10270	4.3	7
9	10419	4.4	8
9	11605	4.9	9
9	11749	5	10
9	13085	5.5	11
9	13234	5.6	12
9	14420	6.1	13
9	14569	6.2	14
9	15905	6.7	15
9	16054	6.8	16
9	17240	7.3	17
9	17389	7.4	18
9	18725	7.9	19
9	18869	8	20
9	20055	8.5	21
9	20204	8.6	22
9	21540	9.1	23
9	21689	9.2	24
9	22875	9.7	25
9	23024	9.8	26
9	24366	10.3	27
9	24502	10.3	28
9	25551	10.8	29
9	25554	10.8	30
9	26746	11.3	31
9	26749	11.3	32
9	27925	11.8	33
9	27928	11.8	34
9	29100	12.3	35
9	29103	12.3	36
9	30256	12.8	37
9	30259	12.8	38
9	31376	13.3	39
9	31379	13.3	40
9	32400	13.8	41
9	32403	13.8	42
9	33637	14.3	43
9	33640	14.3	44
9	34692	14.8	45
9	34695	14.8	46
9	35673	15.3	47
9	35676	15.3	48
9	36749	15.8	49
9	36752	15.8	50
9	37911	16.3	51
9	37914	16.3	52
9	38866	16.8	53
9	38869	16.8	54
9	39860	17.3	55
9	39863	17.3	56
9	40853	17.8	57
9	40856	17.8	58
9	42076	18.4	59
9	42077	18.4	60
9	43189	19	61
9	43190	19	62
9	44428	19.6	63
9	45538	20.2	64
9	46757	20.8	65
9	47423	21.2	66
9	47811	21.4	66
9	48961	22	67
9	48974	22	68
9	50032	22.6	69
9	50417	22.8	69
9	51187	23.2	70
9	51845	23.6	71
9	52210	23.8	72
9	53312	24.4	73
9	53333	24.4	74
9	54344	25	75
9	54708	25.2	76
9	55446	25.6	76
9	56070	26	77
9	56413	26.2	78
9	57446	26.8	78
9	57470	26.8	79
9	58430	27.4	80
9	58776	27.6	81
9	59439	28	81
9	60022	28.4	82
9	60327	28.6	83
9	61249	29.2	83
9	61279	29.2	84
9	62089	29.8	85
9	62406	30	86
9	62990	30.4	86
9	63502	30.8	87
9	63754	31	88
9	64529	31.6	88
9	64557	31.6	89
9	65247	32.2	90
9	65510	32.4	91
9	65992	32.8	91
9	66435	33.2	92
9	66646	33.4	93
9	67290	34	93
9	67317	34	94
9	67847	34.6	95
9	68039	34.8	96
9	68363	35.2	96
9	68619	35.6	97
9	68737	35.8	98
9	69084	36.4	98
9	69095	36.4	99
9	69372	37	99
9	69465	37.2	100
9	69619	37.6	100
10	2861	1.5	1
10	4346	2	2
10	5966	2.5	3
10	6115	2.6	4
10	7451	3.1	4
10	7600	3.2	5
10	8786	3.7	6
10	8935	3.8	6
10	10271	4.3	7
10	10420	4.4	8
10	11606	4.9	9
10	11750	5	10
10	13086	5.5	11
10	13235	5.6	12
10	14421	6.1	13
10	14570	6.2	14
10	15906	6.7	15
10	16055	6.8	16
10	17241	7.3	17
10	17390	7.4	18
10	18726	7.9	19
10	18870	8	20
10	20056	8.5	21
10	20205	8.6	22
10	21541	9.1	23
10	21690	9.2	24
10	22876	9.7	25
10	23025	9.8	26
11	2862	1.5	1
11	4347	2	2
11	5967	2.5	3
11	6116	2.6	4
11	7452	3.1	4
11	7601	3.2	5
11	8787	3.7	6
11	8936	3.8	6
11	10272	4.3	7
11	10421	4.4	8
11	11607	4.9	9
11	11751	5	10
11	13087	5.5	11
11	13236	5.6	12
11	14422	6.1	13
11	14571	6.2	14
11	15907	6.7	15
11	16056	6.8	16
11	17242	7.3	17
11	17391	7.4	18
11	18727	7.9	19
11	18871	8	20
11	20057	8.5	21
11	20206	8.6	22
11	21542	9.1	23
11	21691	9.2	24
11	22877	9.7	25
11	23026	9.8	26
11	24368	10.3	27
11	24527	10.4	28
11	25716	10.9	29
11	25867	11	30
11	27206	11.5	31
11	27368	11.6	32
11	28531	12.1	33
11	28686	12.2	34
11	30007	12.7	35
11	30151	12.8	36
11	31275	13.3	37
11	31431	13.4	38
11	32691	13.9	39
11	32836	14	40
11	33923	14.5	41
11	34074	14.6	42
11	35295	15.1	43
11	35437	15.2	44
11	36511	15.7	45
11	36667	15.8	46
11	37826	16.3	47
11	39002	16.9	48
11	40281	17.5	49
11	41255	18	50
11	41871	18.3	50
11	42367	18.6	51
11	43456	19.1	52
11	43609	19.2	52
11	44724	19.8	53
11	44988	19.9	54
11	45943	20.4	55
11	46567	20.7	56
11	47034	21	57
11	48066	21.5	58
11	48223	21.6	59
11	49267	22.2	60
11	49518	22.3	61
11	50423	22.8	62
11	50998	23.1	63
11	51463	23.4	64
11	52448	23.9	65
11	52602	24	66
11	53632	24.6	67
11	53886	24.7	68
11	54723	25.2	69
11	55273	25.5	70
11	55715	25.8	71
11	56641	26.3	72
11	56787	26.4	73
11	57746	27	74
11	57987	27.1	75
11	58784	27.6	76
11	59280	27.9	77
11	59683	28.2	78
11	60542	28.7	79
11	60667	28.8	80
11	61508	29.4	81
11	61727	29.5	82
11	62419	30	83
11	62536	30.1	84
11	63209	30.6	85
11	63420	30.7	86
11	64039	31.2	87
11	64141	31.3	88
11	64756	31.8	89
11	64945	31.9	90
11	65524	32.4	91
11	65626	32.5	92
11	66178	33	93
11	66355	33.1	94
11	66893	33.6	95
11	66987	33.7	96
11	67476	34.2	97
11	67619	34.3	98
11	68051	34.8	99
11	68117	34.9	100
11	68466	35.4	100
12	2863	1.5	1
12	4348	2	2
12	5968	2.5	3
12	6117	2.6	4
12	7453	3.1	4
12	7602	3.2	5
12	8788	3.7	6
12	8937	3.8	6
12	10273	4.3	7
12	10422	4.4	8
12	11608	4.9	9
12	11752	5	10
12	13088	5.5	11
12	13237	5.6	12
12	14423	6.1	13
12	14572	6.2	14
12	15908	6.7	15
12	16057	6.8	16
12	17243	7.3	17
12	17392	7.4	18
12	18728	7.9	19
12	18872	8	20
12	20058	8.5	21
12	20207	8.6	22
12	21543	9.1	23
12	21692	9.2	24
12	22878	9.7	25
12	23027	9.8	26
12	24369	10.3	27
12	24528	10.4	28
12	25717	10.9	29
12	25868	11	30
12	27207	11.5	31
12	27369	11.6	32
12	28532	12.1	33
12	28687	12.2	34
12	30008	12.7	35
12	30152	12.8	36
12	31276	13.3	37
12	31432	13.4	38
12	32692	13.9	39
12	32837	14	40
12	33924	14.5	41
12	34075	14.6	42
12	35296	15.1	43
12	35438	15.2	44
12	36512	15.7	45
12	36668	15.8	46
12	37827	16.3	47
12	37981	16.4	48
12	39144	17	49
12	39214	17	50
12	40428	17.6	50
12	40494	17.6	51
12	41254	18	52
12	42064	18.4	52
12	42069	18.4	53
12	42366	18.6	54
12	43596	19.2	54
12	43601	19.2	54
12	43608	19.2	55
12	44723	19.8	56
12	45129	20	57
12	45133	20	57
12	45942	20.4	57
12	46741	20.8	58
12	46745	20.8	59
12	47033	21	60
12	48215	21.6	60
12	48218	21.6	60
12	48222	21.6	61
12	49266	22.2	62
12	49656	22.4	63
12	49659	22.4	63
12	50422	22.8	63
12	51166	23.2	64
12	51169	23.2	65
12	51462	23.4	66
12	52589	24	66
12	52591	24	66
12	52601	24	67
12	53631	24.6	68
12	54003	24.8	69
12	54005	24.8	69
12	54722	25.2	69
12	55421	25.6	70
12	55423	25.6	71
12	55714	25.8	72
12	56771	26.4	72
12	56773	26.4	72
12	56786	26.4	73
12	57745	27	74
12	58096	27.2	75
12	58098	27.2	75
12	58783	27.6	75
12	59413	28	76
12	59415	28	77
12	59682	28.2	78
12	60656	28.8	78
12	60658	28.8	78
12	60666	28.8	79
13	2864	1.5	1
13	4349	2	2
13	5969	2.5	3
13	6118	2.6	4
13	7454	3.1	4
13	7603	3.2	5
13	8789	3.7	6
13	8938	3.8	6
13	10274	4.3	7
13	10423	4.4	8
13	11609	4.9	9
13	11753	5	10
13	13089	5.5	11
13	13238	5.6	12
13	14424	6.1	13
13	14573	6.2	14
13	15909	6.7	15
13	16058	6.8	16
13	17244	7.3	17
13	17393	7.4	18
13	18729	7.9	19
13	18873	8	20
13	20059	8.5	21
13	20208	8.6	22
13	21544	9.1	23
13	21693	9.2	24
13	22879	9.7	25
13	23028	9.8	26
13	24370	10.3	27
13	24529	10.4	28
13	25718	10.9	29
13	25869	11	30
13	27208	11.5	31
13	27370	11.6	32
13	28533	12.1	33
13	28688	12.2	34
13	30009	12.7	35
13	30153	12.8	36
13	31277	13.3	37
13	31433	13.4	38
13	32693	13.9	39
13	32838	14	40
13	33925	14.5	41
13	34076	14.6	42
13	35297	15.1	43
13	35439	15.2	44
13	36513	15.7	45
13	36669	15.8	46
13	37828	16.3	47
13	37982	16.4	48
13	39003	16.9	49
13	39145	17	50
13	40282	17.5	51
13	40429	17.6	52
13	41396	18.1	53
13	41548	18.2	54
13	42638	18.7	55
13	42769	18.8	56
13	43752	19.3	57
13	43902	19.4	58
13	44992	19.9	59
13	45136	20	60
13	46092	20.5	61
13	46246	20.6	62
13	47424	21.2	63
13	47606	21.3	64
13	48497	21.8	65
13	49105	22.1	66
13	49664	22.4	67
13	50561	22.9	68
13	50706	23	69
13	51849	23.6	70
13	52031	23.7	71
13	52877	24.2	72
13	53469	24.5	73
13	54010	24.8	74
13	54861	25.3	75
13	54996	25.4	76
13	56078	26	77
13	56241	26.1	78
13	57044	26.6	79
13	57587	26.9	80
13	58105	27.2	81
13	58920	27.7	82
13	59038	27.8	83
13	60028	28.4	84
13	60171	28.5	85
13	60902	29	86
13	61369	29.3	87
13	61828	29.6	88
13	62532	30.1	89
13	62645	30.2	90
13	63511	30.8	91
13	63625	30.9	92
13	64232	31.4	93
13	64644	31.7	94
13	65032	32	95
13	65622	32.5	96
13	65714	32.6	97
13	66445	33.2	98
13	66534	33.3	99
13	67055	33.8	100
13	67372	34.1	100
14	2865	1.5	1
14	4350	2	2
14	5970	2.5	3
14	6119	2.6	4
14	7455	3.1	4
14	7604	3.2	5
14	8790	3.7	6
14	8939	3.8	6
14	10275	4.3	7
14	10424	4.4	8
14	11610	4.9	9
14	11754	5	10
14	13090	5.5	11
14	13239	5.6	12
14	14425	6.1	13
14	14574	6.2	14
14	15910	6.7	15
14	16059	6.8	16
14	17245	7.3	17
14	17394	7.4	18
14	18730	7.9	19
14	18874	8	20
14	20060	8.5	21
14	20209	8.6	22
14	21545	9.1	23
14	21694	9.2	24
14	22880	9.7	25
14	23029	9.8	26
14	24371	10.3	27
14	24530	10.4	28
14	25719	10.9	29
14	25870	11	30
14	27209	11.5	31
14	27371	11.6	32
14	28534	12.1	33
14	28689	12.2	34
14	30010	12.7	35
14	30154	12.8	36
14	31278	13.3	37
14	31434	13.4	38
14	32694	13.9	39
14	32839	14	40
14	33926	14.5	41
14	34077	14.6	42
14	35298	15.1	43
14	35440	15.2	44
14	36514	15.7	45
14	36670	15.8	46
14	37829	16.3	47
14	37983	16.4	48
14	39004	16.9	49
14	39146	17	50
14	40283	17.5	51
14	40430	17.6	52
14	41397	18.1	53
14	41549	18.2	54
14	42639	18.7	55
14	42770	18.8	56
14	43753	19.3	57
14	43903	19.4	58
14	44993	19.9	59
14	45137	20	60
14	46093	20.5	61
14	46247	20.6	62
14	47289	21.1	63
14	47795	21.4	64
14	48377	21.7	65
14	49255	22.2	66
14	49523	22.3	67
14	50567	22.9	68
14	50695	23	69
14	51717	23.5	69
14	52185	23.8	70
14	52750	24.1	71
14	53619	24.6	71
14	53892	24.7	72
14	54868	25.3	73
14	54988	25.4	74
14	55960	25.9	74
14	56387	26.2	75
14	56933	26.5	76
14	57732	27	76
14	57995	27.1	77
14	58926	27.7	78
14	59031	27.8	79
14	59914	28.3	79
14	60301	28.6	80
14	60798	28.9	81
14	61498	29.4	81
14	61736	29.5	82
14	62541	30.1	83
14	62637	30.2	84
14	63425	30.7	84
14	63729	31	85
14	64146	31.3	86
14	64745	31.8	86
14	64950	31.9	87
14	65631	32.5	88
14	65707	32.6	89
14	66360	33.1	89
14	66622	33.4	90
14	66992	33.7	91
14	67466	34.2	91
14	67623	34.3	92
14	68121	34.9	93
14	68182	35	94
14	68576	35.5	94
14	68725	35.8	95
14	68920	36.1	96
14	69180	36.6	96
14	69269	36.7	97
14	69496	37.3	98
14	69529	37.4	99
14	69707	37.9	99
14	69775	38.2	99
14	69851	38.5	100
14	69954	39	100
15	2866	1.5	1
15	4351	2	2
15	5971	2.5	3
15	6120	2.6	4
15	7456	3.1	4
15	7605	3.2	5
15	8791	3.7	6
15	8940	3.8	6
15	10276	4.3	7
15	10425	4.4	8
15	11611	4.9	9
15	11755	5	10
15	13091	5.5	11
15	13240	5.6	12
15	14426	6.1	13
15	14575	6.2	14
15	15911	6.7	15
15	16060	6.8	16
15	17246	7.3	17
15	17395	7.4	18
15	18731	7.9	19
15	18875	8	20
15	20061	8.5	21
15	20210	8.6	22
15	21546	9.1	23
15	21695	9.2	24
15	22881	9.7	25
15	23030	9.8	26
15	24372	10.3	27
15	24531	10.4	28
15	25720	10.9	29
15	25871	11	30
15	27210	11.5	31
15	27372	11.6	32
15	28535	12.1	33
15	28690	12.2	34
15	30011	12.7	35
15	30155	12.8	36
15	31279	13.3	37
15	31435	13.4	38
15	32695	13.9	39
15	32840	14	40
15	33927	14.5	41
15	34078	14.6	42
15	35299	15.1	43
15	35441	15.2	44
15	36515	15.7	45
15	36671	15.8	46
15	37830	16.3	47
15	37984	16.4	48
15	39005	16.9	49
15	39147	17	50
15	40284	17.5	51
15	40431	17.6	52
15	41398	18.1	53
15	41550	18.2	54
15	42640	18.7	55
15	42771	18.8	56
15	43754	19.3	57
15	43904	19.4	58
15	44994	19.9	59
15	45138	20	60
15	46094	20.5	61
15	46248	20.6	62
15	47290	21.1	63
15	47425	21.2	64
15	48378	21.7	65
15	48498	21.8	66
15	49524	22.3	67
15	49665	22.4	68
15	50568	22.9	69
15	50707	23	70
15	52035	23.7	71
15	52193	23.8	72
15	53473	24.5	73
15	53624	24.6	74
15	54713	25.2	74
15	54993	25.4	75
16	2867	1.5	1
16	4352	2	2
16	5972	2.5	3
16	6121	2.6	4
16	7457	3.1	4
16	7606	3.2	5
16	8792	3.7	6
16	8941	3.8	6
16	10277	4.3	7
16	10426	4.4	8
16	11612	4.9	9
16	11756	5	10
16	13092	5.5	11
16	13241	5.6	12
16	14427	6.1	13
16	14576	6.2	14
16	15912	6.7	15
16	16061	6.8	16
16	17247	7.3	17
16	17396	7.4	18
16	18732	7.9	19
16	18876	8	20
16	20062	8.5	21
16	20211	8.6	22
16	21547	9.1	23
16	21696	9.2	24
16	22882	9.7	25
16	23031	9.8	26
16	24373	10.3	27
16	24532	10.4	28
16	25721	10.9	29
16	25872	11	30
16	27211	11.5	31
16	27373	11.6	32
16	28536	12.1	33
16	28691	12.2	34
16	30012	12.7	35
16	30156	12.8	36
16	31280	13.3	37
16	31436	13.4	38
16	32696	13.9	39
16	32841	14	40
16	33928	14.5	41
16	34079	14.6	42
16	35300	15.1	43
16	35442	15.2	44
16	36516	15.7	45
16	36672	15.8	46
16	37831	16.3	47
16	37985	16.4	48
16	39006	16.9	49
16	39148	17	50
16	40285	17.5	51
16	40432	17.6	52
16	41399	18.1	53
16	41551	18.2	54
16	42641	18.7	55
16	42772	18.8	56
16	43755	19.3	57
16	43905	19.4	58
16	44995	19.9	59
16	45139	20	60
16	46095	20.5	61
16	46249	20.6	62
16	47291	21.1	63
16	47426	21.2	64
16	48379	21.7	65
16	48499	21.8	66
16	49525	22.3	67
16	49666	22.4	68
16	50569	22.9	69
16	50708	23	70
16	52036	23.7	71
16	52194	23.8	72
16	53474	24.5	73
16	54864	25.3	74
16	56244	26.1	75
16	56395	26.2	76
16	57315	26.7	76
16	57453	26.8	77
16	58263	27.3	78
16	58416	27.4	78
16	59064	27.8	79
16	59425	28	80
16	59935	28.3	81
16	60313	28.6	82
16	60674	28.8	83
16	61265	29.2	84
16	61389	29.3	85
16	62075	29.8	86
16	62101	29.8	87
16	62872	30.3	88
16	62979	30.4	89
16	63530	30.8	89
16	63743	31	90
16	64159	31.3	91
16	64546	31.6	91
16	64765	31.8	92
16	65236	32.2	93
16	65425	32.3	94
16	65981	32.8	95
16	66002	32.8	96
16	66546	33.3	97
16	66635	33.4	98
16	67067	33.8	98
16	67306	34	99
16	67630	34.3	100
16	67837	34.6	100
17	2868	1.5	1
17	4353	2	2
17	5973	2.5	3
17	6122	2.6	4
17	7458	3.1	4
17	7607	3.2	5
17	8793	3.7	6
17	8942	3.8	6
17	10278	4.3	7
17	10427	4.4	8
17	11613	4.9	9
17	11757	5	10
17	13093	5.5	11
17	13242	5.6	12
17	14428	6.1	13
17	14577	6.2	14
17	15913	6.7	15
17	16062	6.8	16
17	17248	7.3	17
17	17397	7.4	18
17	18733	7.9	19
17	18877	8	20
17	20063	8.5	21
17	20212	8.6	22
17	21548	9.1	23
17	21697	9.2	24
17	22883	9.7	25
17	23032	9.8	26
17	24374	10.3	27
17	24533	10.4	28
17	25722	10.9	29
17	25873	11	30
17	27212	11.5	31
17	27374	11.6	32
17	28537	12.1	33
17	28692	12.2	34