version 3
run Tictoc3-0-20240127-22:49:09-17017
attr configname Tictoc3
attr datetime 20240127-22:49:09
attr datetimef 20240127-224909
attr experiment Tictoc3
attr inifile omnetpp.ini
attr iterationvars ""
attr iterationvarsd ""
attr iterationvarsf ""
attr measurement ""
attr network Tictoc3
attr processid 17017
attr repetition 0
attr replication #0
attr resultdir results
attr runnumber 0
attr seedset 0
config network Tictoc3

vector 0 Tictoc3.peer[0] HopCount ETV
vector 1 Tictoc3.peer[1] HopCount ETV
vector 2 Tictoc3.peer[2] HopCount ETV
vector 3 Tictoc3.peer[3] HopCount ETV
vector 4 Tictoc3.peer[4] HopCount ETV
vector 5 Tictoc3.peer[5] HopCount ETV
vector 6 Tictoc3.peer[6] HopCount ETV
vector 7 Tictoc3.peer[7] HopCount ETV
vector 8 Tictoc3.peer[8] HopCount ETV
vector 9 Tictoc3.peer[9] HopCount ETV
vector 10 Tictoc3.peer[10] HopCount ETV
vector 11 Tictoc3.peer[11] HopCount ETV
vector 12 Tictoc3.peer[12] HopCount ETV
vector 13 Tictoc3.peer[13] HopCount ETV
vector 14 Tictoc3.peer[14] HopCount ETV
vector 15 Tictoc3.peer[15] HopCount ETV
vector 16 Tictoc3.peer[16] HopCount ETV
vector 17 Tictoc3.peer[17] HopCount ETV
vector 18 Tictoc3.peer[18] HopCount ETV
vector 19 Tictoc3.peer[19] HopCount ETV
vector 20 Tictoc3.peer[20] HopCount ETV
vector 21 Tictoc3.peer[21] HopCount ETV
vector 22 Tictoc3.peer[22] HopCount ETV
vector 23 Tictoc3.peer[23] HopCount ETV
vector 24 Tictoc3.peer[24] HopCount ETV
vector 25 Tictoc3.peer[25] HopCount ETV
vector 26 Tictoc3.peer[26] HopCount ETV
vector 27 Tictoc3.peer[27] HopCount ETV
vector 28 Tictoc3.peer[28] HopCount ETV
vector 29 Tictoc3.peer[29] HopCount ETV
vector 30 Tictoc3.peer[30] HopCount ETV
vector 31 Tictoc3.peer[31] HopCount ETV
vector 32 Tictoc3.peer[32] HopCount ETV
vector 33 Tictoc3.peer[33] HopCount ETV
vector 34 Tictoc3.peer[34] HopCount ETV
vector 35 Tictoc3.peer[35] HopCount ETV
vector 36 Tictoc3.peer[36] HopCount ETV
vector 37 Tictoc3.peer[37] HopCount ETV
vector 38 Tictoc3.peer[38] HopCount ETV
vector 39 Tictoc3.peer[39] HopCount ETV
vector 40 Tictoc3.peer[40] HopCount ETV
vector 41 Tictoc3.peer[41] HopCount ETV
vector 42 Tictoc3.peer[42] HopCount ETV
vector 43 Tictoc3.peer[43] HopCount ETV
vector 44 Tictoc3.peer[44] HopCount ETV
vector 45 Tictoc3.peer[45] HopCount ETV
vector 46 Tictoc3.peer[46] HopCount ETV
vector 47 Tictoc3.peer[47] HopCount ETV
vector 48 Tictoc3.peer[48] HopCount ETV
vector 49 Tictoc3.peer[49] HopCount ETV
vector 50 Tictoc3.peer[50] HopCount ETV
vector 51 Tictoc3.peer[51] HopCount ETV
vector 52 Tictoc3.peer[52] HopCount ETV
vector 53 Tictoc3.peer[53] HopCount ETV
vector 54 Tictoc3.peer[54] HopCount ETV
vector 55 Tictoc3.peer[55] HopCount ETV
vector 56 Tictoc3.peer[56] HopCount ETV
vector 57 Tictoc3.peer[57] HopCount ETV
vector 58 Tictoc3.peer[58] HopCount ETV
vector 59 Tictoc3.peer[59] HopCount ETV
vector 60 Tictoc3.peer[60] HopCount ETV
vector 61 Tictoc3.peer[61] HopCount ETV
vector 62 Tictoc3.peer[62] HopCount ETV
vector 63 Tictoc3.peer[63] HopCount ETV
vector 64 Tictoc3.peer[64] HopCount ETV
vector 65 Tictoc3.peer[65] HopCount ETV
vector 66 Tictoc3.peer[66] HopCount ETV
vector 67 Tictoc3.peer[67] HopCount ETV
vector 68 Tictoc3.peer[68] HopCount ETV
vector 69 Tictoc3.peer[69] HopCount ETV
vector 70 Tictoc3.peer[70] HopCount ETV
vector 71 Tictoc3.peer[71] HopCount ETV
vector 72 Tictoc3.peer[72] HopCount ETV
vector 73 Tictoc3.peer[73] HopCount ETV
vector 74 Tictoc3.peer[74] HopCount ETV
vector 75 Tictoc3.peer[75] HopCount ETV
vector 76 Tictoc3.peer[76] HopCount ETV
vector 77 Tictoc3.peer[77] HopCount ETV
vector 78 Tictoc3.peer[78] HopCount ETV
vector 79 Tictoc3.peer[79] HopCount ETV
vector 80 Tictoc3.peer[80] HopCount ETV
vector 81 Tictoc3.peer[81] HopCount ETV
vector 82 Tictoc3.peer[82] HopCount ETV
vector 83 Tictoc3.peer[83] HopCount ETV
vector 84 Tictoc3.peer[84] HopCount ETV
vector 85 Tictoc3.peer[85] HopCount ETV
vector 86 Tictoc3.peer[86] HopCount ETV
vector 87 Tictoc3.peer[87] HopCount ETV
vector 88 Tictoc3.peer[88] HopCount ETV
vector 89 Tictoc3.peer[89] HopCount ETV
vector 90 Tictoc3.peer[90] HopCount ETV
vector 91 Tictoc3.peer[91] HopCount ETV
vector 92 Tictoc3.peer[92] HopCount ETV
vector 93 Tictoc3.peer[93] HopCount ETV
vector 94 Tictoc3.peer[94] HopCount ETV
vector 95 Tictoc3.peer[95] HopCount ETV
vector 96 Tictoc3.peer[96] HopCount ETV
vector 97 Tictoc3.peer[97] HopCount ETV
vector 98 Tictoc3.peer[98] HopCount ETV
vector 99 Tictoc3.peer[99] HopCount ETV
vector 100 Tictoc3.peer[100] HopCount ETV
vector 101 Tictoc3.peer[101] HopCount ETV
vector 102 Tictoc3.peer[102] HopCount ETV
vector 103 Tictoc3.peer[103] HopCount ETV
vector 104 Tictoc3.peer[104] HopCount ETV
vector 105 Tictoc3.peer[105] HopCount ETV
vector 106 Tictoc3.peer[106] HopCount ETV
vector 107 Tictoc3.peer[107] HopCount ETV
vector 108 Tictoc3.peer[108] HopCount ETV
vector 109 Tictoc3.peer[109] HopCount ETV
vector 110 Tictoc3.peer[110] HopCount ETV
vector 111 Tictoc3.peer[111] HopCount ETV
vector 112 Tictoc3.peer[112] HopCount ETV
vector 113 Tictoc3.peer[113] HopCount ETV
vector 114 Tictoc3.peer[114] HopCount ETV
vector 115 Tictoc3.peer[115] HopCount ETV
vector 116 Tictoc3.peer[116] HopCount ETV
vector 117 Tictoc3.peer[117] HopCount ETV
vector 118 Tictoc3.peer[118] HopCount ETV
vector 119 Tictoc3.peer[119] HopCount ETV
vector 120 Tictoc3.peer[120] HopCount ETV
vector 121 Tictoc3.peer[121] HopCount ETV
vector 122 Tictoc3.peer[122] HopCount ETV
vector 123 Tictoc3.peer[123] HopCount ETV
vector 124 Tictoc3.peer[124] HopCount ETV
vector 125 Tictoc3.peer[125] HopCount ETV
vector 126 Tictoc3.peer[126] HopCount ETV
vector 127 Tictoc3.peer[127] HopCount ETV
vector 128 Tictoc3.peer[128] HopCount ETV
vector 129 Tictoc3.peer[129] HopCount ETV
vector 130 Tictoc3.peer[130] HopCount ETV
vector 131 Tictoc3.peer[131] HopCount ETV
vector 132 Tictoc3.peer[132] HopCount ETV
vector 133 Tictoc3.peer[133] HopCount ETV
vector 134 Tictoc3.peer[134] HopCount ETV
vector 135 Tictoc3.peer[135] HopCount ETV
vector 136 Tictoc3.peer[136] HopCount ETV
vector 137 Tictoc3.peer[137] HopCount ETV
vector 138 Tictoc3.peer[138] HopCount ETV
vector 139 Tictoc3.peer[139] HopCount ETV
vector 140 Tictoc3.peer[140] HopCount ETV
vector 141 Tictoc3.peer[141] HopCount ETV
vector 142 Tictoc3.peer[142] HopCount ETV
vector 143 Tictoc3.peer[143] HopCount ETV
vector 144 Tictoc3.peer[144] HopCount ETV
vector 145 Tictoc3.peer[145] HopCount ETV
vector 146 Tictoc3.peer[146] HopCount ETV
vector 147 Tictoc3.peer[147] HopCount ETV
vector 148 Tictoc3.peer[148] HopCount ETV
vector 149 Tictoc3.peer[149] HopCount ETV
vector 150 Tictoc3.peer[150] HopCount ETV
vector 151 Tictoc3.peer[151] HopCount ETV
vector 152 Tictoc3.peer[152] HopCount ETV
vector 153 Tictoc3.peer[153] HopCount ETV
vector 154 Tictoc3.peer[154] HopCount ETV
vector 155 Tictoc3.peer[155] HopCount ETV
vector 156 Tictoc3.peer[156] HopCount ETV
vector 157 Tictoc3.peer[157] HopCount ETV
vector 158 Tictoc3.peer[158] HopCount ETV
vector 159 Tictoc3.peer[159] HopCount ETV
vector 160 Tictoc3.peer[160] HopCount ETV
vector 161 Tictoc3.peer[161] HopCount ETV
vector 162 Tictoc3.peer[162] HopCount ETV
vector 163 Tictoc3.peer[163] HopCount ETV
vector 164 Tictoc3.peer[164] HopCount ETV
vector 165 Tictoc3.peer[165] HopCount ETV
vector 166 Tictoc3.peer[166] HopCount ETV
vector 167 Tictoc3.peer[167] HopCount ETV
vector 168 Tictoc3.peer[168] HopCount ETV
vector 169 Tictoc3.peer[169] HopCount ETV
vector 170 Tictoc3.peer[170] HopCount ETV
vector 171 Tictoc3.peer[171] HopCount ETV
vector 172 Tictoc3.peer[172] HopCount ETV
vector 173 Tictoc3.peer[173] HopCount ETV
vector 174 Tictoc3.peer[174] HopCount ETV
vector 175 Tictoc3.peer[175] HopCount ETV
vector 176 Tictoc3.peer[176] HopCount ETV
vector 177 Tictoc3.peer[177] HopCount ETV
vector 178 Tictoc3.peer[178] HopCount ETV
vector 179 Tictoc3.peer[179] HopCount ETV
vector 180 Tictoc3.peer[180] HopCount ETV
vector 181 Tictoc3.peer[181] HopCount ETV
vector 182 Tictoc3.peer[182] HopCount ETV
vector 183 Tictoc3.peer[183] HopCount ETV
vector 184 Tictoc3.peer[184] HopCount ETV
vector 185 Tictoc3.peer[185] HopCount ETV
vector 186 Tictoc3.peer[186] HopCount ETV
vector 187 Tictoc3.peer[187] HopCount ETV
vector 188 Tictoc3.peer[188] HopCount ETV
vector 189 Tictoc3.peer[189] HopCount ETV
vector 190 Tictoc3.peer[190] HopCount ETV
vector 191 Tictoc3.peer[191] HopCount ETV
vector 192 Tictoc3.peer[192] HopCount ETV
vector 193 Tictoc3.peer[193] HopCount ETV
vector 194 Tictoc3.peer[194] HopCount ETV
vector 195 Tictoc3.peer[195] HopCount ETV
vector 196 Tictoc3.peer[196] HopCount ETV
vector 197 Tictoc3.peer[197] HopCount ETV
vector 198 Tictoc3.peer[198] HopCount ETV
vector 199 Tictoc3.peer[199] HopCount ETV
vector 200 Tictoc3.peer[200] HopCount ETV
vector 201 Tictoc3.peer[201] HopCount ETV
vector 202 Tictoc3.peer[202] HopCount ETV
vector 203 Tictoc3.peer[203] HopCount ETV
vector 204 Tictoc3.peer[204] HopCount ETV
vector 205 Tictoc3.peer[205] HopCount ETV
vector 206 Tictoc3.peer[206] HopCount ETV
vector 207 Tictoc3.peer[207] HopCount ETV
vector 208 Tictoc3.peer[208] HopCount ETV
vector 209 Tictoc3.peer[209] HopCount ETV
vector 210 Tictoc3.peer[210] HopCount ETV
vector 211 Tictoc3.peer[211] HopCount ETV
vector 212 Tictoc3.peer[212] HopCount ETV
vector 213 Tictoc3.peer[213] HopCount ETV
vector 214 Tictoc3.peer[214] HopCount ETV
vector 215 Tictoc3.peer[215] HopCount ETV
vector 216 Tictoc3.peer[216] HopCount ETV
vector 217 Tictoc3.peer[217] HopCount ETV
vector 218 Tictoc3.peer[218] HopCount ETV
vector 219 Tictoc3.peer[219] HopCount ETV
vector 220 Tictoc3.peer[220] HopCount ETV
vector 221 Tictoc3.peer[221] HopCount ETV
vector 222 Tictoc3.peer[222] HopCount ETV
vector 223 Tictoc3.peer[223] HopCount ETV
vector 224 Tictoc3.peer[224] HopCount ETV
vector 225 Tictoc3.peer[225] HopCount ETV
vector 226 Tictoc3.peer[226] HopCount ETV
vector 227 Tictoc3.peer[227] HopCount ETV
vector 228 Tictoc3.peer[228] HopCount ETV
vector 229 Tictoc3.peer[229] HopCount ETV
vector 230 Tictoc3.peer[230] HopCount ETV
vector 231 Tictoc3.peer[231] HopCount ETV
vector 232 Tictoc3.peer[232] HopCount ETV
vector 233 Tictoc3.peer[233] HopCount ETV
vector 234 Tictoc3.peer[234] HopCount ETV
vector 235 Tictoc3.peer[235] HopCount ETV
vector 236 Tictoc3.peer[236] HopCount ETV
vector 237 Tictoc3.peer[237] HopCount ETV
vector 238 Tictoc3.peer[238] HopCount ETV
vector 239 Tictoc3.peer[239] HopCount ETV
vector 240 Tictoc3.peer[240] HopCount ETV
vector 241 Tictoc3.peer[241] HopCount ETV
vector 242 Tictoc3.peer[242] HopCount ETV
vector 243 Tictoc3.peer[243] HopCount ETV
vector 244 Tictoc3.peer[244] HopCount ETV
vector 245 Tictoc3.peer[245] HopCount ETV
vector 246 Tictoc3.peer[246] HopCount ETV
vector 247 Tictoc3.peer[247] HopCount ETV
vector 248 Tictoc3.peer[248] HopCount ETV
vector 249 Tictoc3.peer[249] HopCount ETV
vector 250 Tictoc3.peer[250] HopCount ETV
vector 251 Tictoc3.peer[251] HopCount ETV
vector 252 Tictoc3.peer[252] HopCount ETV
vector 253 Tictoc3.peer[253] HopCount ETV
vector 254 Tictoc3.peer[254] HopCount ETV
vector 255 Tictoc3.peer[255] HopCount ETV
vector 256 Tictoc3.peer[256] HopCount ETV
vector 257 Tictoc3.peer[257] HopCount ETV
vector 258 Tictoc3.peer[258] HopCount ETV
vector 259 Tictoc3.peer[259] HopCount ETV
vector 260 Tictoc3.peer[260] HopCount ETV
vector 261 Tictoc3.peer[261] HopCount ETV
vector 262 Tictoc3.peer[262] HopCount ETV
vector 263 Tictoc3.peer[263] HopCount ETV
vector 264 Tictoc3.peer[264] HopCount ETV
vector 265 Tictoc3.peer[265] HopCount ETV
vector 266 Tictoc3.peer[266] HopCount ETV
vector 267 Tictoc3.peer[267] HopCount ETV
vector 268 Tictoc3.peer[268] HopCount ETV
vector 269 Tictoc3.peer[269] HopCount ETV
vector 270 Tictoc3.peer[270] HopCount ETV
vector 271 Tictoc3.peer[271] HopCount ETV
vector 272 Tictoc3.peer[272] HopCount ETV
vector 273 Tictoc3.peer[273] HopCount ETV
vector 274 Tictoc3.peer[274] HopCount ETV
vector 275 Tictoc3.peer[275] HopCount ETV
vector 276 Tictoc3.peer[276] HopCount ETV
vector 277 Tictoc3.peer[277] HopCount ETV
vector 278 Tictoc3.peer[278] HopCount ETV
vector 279 Tictoc3.peer[279] HopCount ETV
vector 280 Tictoc3.peer[280] HopCount ETV
vector 281 Tictoc3.peer[281] HopCount ETV
vector 282 Tictoc3.peer[282] HopCount ETV
vector 283 Tictoc3.peer[283] HopCount ETV
vector 284 Tictoc3.peer[284] HopCount ETV
vector 285 Tictoc3.peer[285] HopCount ETV
vector 286 Tictoc3.peer[286] HopCount ETV
vector 287 Tictoc3.peer[287] HopCount ETV
vector 288 Tictoc3.peer[288] HopCount ETV
vector 289 Tictoc3.peer[289] HopCount ETV
vector 290 Tictoc3.peer[290] HopCount ETV
vector 291 Tictoc3.peer[291] HopCount ETV
vector 292 Tictoc3.peer[292] HopCount ETV
vector 293 Tictoc3.peer[293] HopCount ETV
vector 294 Tictoc3.peer[294] HopCount ETV
vector 295 Tictoc3.peer[295] HopCount ETV
vector 296 Tictoc3.peer[296] HopCount ETV
vector 297 Tictoc3.peer[297] HopCount ETV
vector 298 Tictoc3.peer[298] HopCount ETV
vector 299 Tictoc3.peer[299] HopCount ETV
vector 300 Tictoc3.peer[300] HopCount ETV
vector 301 Tictoc3.peer[301] HopCount ETV
vector 302 Tictoc3.peer[302] HopCount ETV
vector 303 Tictoc3.peer[303] HopCount ETV
vector 304 Tictoc3.peer[304] HopCount ETV
vector 305 Tictoc3.peer[305] HopCount ETV
vector 306 Tictoc3.peer[306] HopCount ETV
vector 307 Tictoc3.peer[307] HopCount ETV
vector 308 Tictoc3.peer[308] HopCount ETV
vector 309 Tictoc3.peer[309] HopCount ETV
vector 310 Tictoc3.peer[310] HopCount ETV
vector 311 Tictoc3.peer[311] HopCount ETV
vector 312 Tictoc3.peer[312] HopCount ETV
vector 313 Tictoc3.peer[313] HopCount ETV
vector 314 Tictoc3.peer[314] HopCount ETV
vector 315 Tictoc3.peer[315] HopCount ETV
vector 316 Tictoc3.peer[316] HopCount ETV
vector 317 Tictoc3.peer[317] HopCount ETV
vector 318 Tictoc3.peer[318] HopCount ETV
vector 319 Tictoc3.peer[319] HopCount ETV
vector 320 Tictoc3.peer[320] HopCount ETV
vector 321 Tictoc3.peer[321] HopCount ETV
vector 322 Tictoc3.peer[322] HopCount ETV
vector 323 Tictoc3.peer[323] HopCount ETV
vector 324 Tictoc3.peer[324] HopCount ETV
vector 325 Tictoc3.peer[325] HopCount ETV
vector 326 Tictoc3.peer[326] HopCount ETV
vector 327 Tictoc3.peer[327] HopCount ETV
vector 328 Tictoc3.peer[328] HopCount ETV
vector 329 Tictoc3.peer[329] HopCount ETV
vector 330 Tictoc3.peer[330] HopCount ETV
vector 331 Tictoc3.peer[331] HopCount ETV
vector 332 Tictoc3.peer[332] HopCount ETV
vector 333 Tictoc3.peer[333] HopCount ETV
vector 334 Tictoc3.peer[334] HopCount ETV
vector 335 Tictoc3.peer[335] HopCount ETV
vector 336 Tictoc3.peer[336] HopCount ETV
vector 337 Tictoc3.peer[337] HopCount ETV
vector 338 Tictoc3.peer[338] HopCount ETV
vector 339 Tictoc3.peer[339] HopCount ETV
vector 340 Tictoc3.peer[340] HopCount ETV
vector 341 Tictoc3.peer[341] HopCount ETV
vector 342 Tictoc3.peer[342] HopCount ETV
vector 343 Tictoc3.peer[343] HopCount ETV
vector 344 Tictoc3.peer[344] HopCount ETV
vector 345 Tictoc3.peer[345] HopCount ETV
vector 346 Tictoc3.peer[346] HopCount ETV
vector 347 Tictoc3.peer[347] HopCount ETV
vector 348 Tictoc3.peer[348] HopCount ETV
vector 349 Tictoc3.peer[349] HopCount ETV
vector 350 Tictoc3.peer[350] HopCount ETV
vector 351 Tictoc3.peer[351] HopCount ETV
vector 352 Tictoc3.peer[352] HopCount ETV
vector 353 Tictoc3.peer[353] HopCount ETV
vector 354 Tictoc3.peer[354] HopCount ETV
vector 355 Tictoc3.peer[355] HopCount ETV
vector 356 Tictoc3.peer[356] HopCount ETV
vector 357 Tictoc3.peer[357] HopCount ETV
vector 358 Tictoc3.peer[358] HopCount ETV
vector 359 Tictoc3.peer[359] HopCount ETV
vector 360 Tictoc3.peer[360] HopCount ETV
vector 361 Tictoc3.peer[361] HopCount ETV
vector 362 Tictoc3.peer[362] HopCount ETV
vector 363 Tictoc3.peer[363] HopCount ETV
vector 364 Tictoc3.peer[364] HopCount ETV
vector 365 Tictoc3.peer[365] HopCount ETV
vector 366 Tictoc3.peer[366] HopCount ETV
vector 367 Tictoc3.peer[367] HopCount ETV
vector 368 Tictoc3.peer[368] HopCount ETV
vector 369 Tictoc3.peer[369] HopCount ETV
vector 370 Tictoc3.peer[370] HopCount ETV
vector 371 Tictoc3.peer[371] HopCount ETV
vector 372 Tictoc3.peer[372] HopCount ETV
vector 373 Tictoc3.peer[373] HopCount ETV
vector 374 Tictoc3.peer[374] HopCount ETV
vector 375 Tictoc3.peer[375] HopCount ETV
vector 376 Tictoc3.peer[376] HopCount ETV
vector 377 Tictoc3.peer[377] HopCount ETV
vector 378 Tictoc3.peer[378] HopCount ETV
vector 379 Tictoc3.peer[379] HopCount ETV
vector 380 Tictoc3.peer[380] HopCount ETV
vector 381 Tictoc3.peer[381] HopCount ETV
vector 382 Tictoc3.peer[382] HopCount ETV
vector 383 Tictoc3.peer[383] HopCount ETV
vector 384 Tictoc3.peer[384] HopCount ETV
vector 385 Tictoc3.peer[385] HopCount ETV
vector 386 Tictoc3.peer[386] HopCount ETV
vector 387 Tictoc3.peer[387] HopCount ETV
vector 388 Tictoc3.peer[388] HopCount ETV
vector 389 Tictoc3.peer[389] HopCount ETV
vector 390 Tictoc3.peer[390] HopCount ETV
vector 391 Tictoc3.peer[391] HopCount ETV
vector 392 Tictoc3.peer[392] HopCount ETV
vector 393 Tictoc3.peer[393] HopCount ETV
vector 394 Tictoc3.peer[394] HopCount ETV
vector 395 Tictoc3.peer[395] HopCount ETV
vector 396 Tictoc3.peer[396] HopCount ETV
vector 397 Tictoc3.peer[397] HopCount ETV
vector 398 Tictoc3.peer[398] HopCount ETV
vector 399 Tictoc3.peer[399] HopCount ETV
vector 400 Tictoc3.peer[400] HopCount ETV
vector 401 Tictoc3.peer[401] HopCount ETV
vector 402 Tictoc3.peer[402] HopCount ETV
vector 403 Tictoc3.peer[403] HopCount ETV
vector 404 Tictoc3.peer[404] HopCount ETV
vector 405 Tictoc3.peer[405] HopCount ETV
vector 406 Tictoc3.peer[406] HopCount ETV
vector 407 Tictoc3.peer[407] HopCount ETV
vector 408 Tictoc3.peer[408] HopCount ETV
vector 409 Tictoc3.peer[409] HopCount ETV
vector 410 Tictoc3.peer[410] HopCount ETV
vector 411 Tictoc3.peer[411] HopCount ETV
vector 412 Tictoc3.peer[412] HopCount ETV
vector 413 Tictoc3.peer[413] HopCount ETV
vector 414 Tictoc3.peer[414] HopCount ETV
vector 415 Tictoc3.peer[415] HopCount ETV
vector 416 Tictoc3.peer[416] HopCount ETV
vector 417 Tictoc3.peer[417] HopCount ETV
vector 418 Tictoc3.peer[418] HopCount ETV
vector 419 Tictoc3.peer[419] HopCount ETV
vector 420 Tictoc3.peer[420] HopCount ETV
vector 421 Tictoc3.peer[421] HopCount ETV
vector 422 Tictoc3.peer[422] HopCount ETV
vector 423 Tictoc3.peer[423] HopCount ETV
vector 424 Tictoc3.peer[424] HopCount ETV
vector 425 Tictoc3.peer[425] HopCount ETV
vector 426 Tictoc3.peer[426] HopCount ETV
vector 427 Tictoc3.peer[427] HopCount ETV
vector 428 Tictoc3.peer[428] HopCount ETV
vector 429 Tictoc3.peer[429] HopCount ETV
vector 430 Tictoc3.peer[430] HopCount ETV
vector 431 Tictoc3.peer[431] HopCount ETV
vector 432 Tictoc3.peer[432] HopCount ETV
vector 433 Tictoc3.peer[433] HopCount ETV
vector 434 Tictoc3.peer[434] HopCount ETV
vector 435 Tictoc3.peer[435] HopCount ETV
vector 436 Tictoc3.peer[436] HopCount ETV
vector 437 Tictoc3.peer[437] HopCount ETV
vector 438 Tictoc3.peer[438] HopCount ETV
vector 439 Tictoc3.peer[439] HopCount ETV
vector 440 Tictoc3.peer[440] HopCount ETV
vector 441 Tictoc3.peer[441] HopCount ETV
vector 442 Tictoc3.peer[442] HopCount ETV
vector 443 Tictoc3.peer[443] HopCount ETV
vector 444 Tictoc3.peer[444] HopCount ETV
vector 445 Tictoc3.peer[445] HopCount ETV
vector 446 Tictoc3.peer[446] HopCount ETV
vector 447 Tictoc3.peer[447] HopCount ETV
vector 448 Tictoc3.peer[448] HopCount ETV
vector 449 Tictoc3.peer[449] HopCount ETV
vector 450 Tictoc3.peer[450] HopCount ETV
vector 451 Tictoc3.peer[451] HopCount ETV
vector 452 Tictoc3.peer[452] HopCount ETV
vector 453 Tictoc3.peer[453] HopCount ETV
vector 454 Tictoc3.peer[454] HopCount ETV
vector 455 Tictoc3.peer[455] HopCount ETV
vector 456 Tictoc3.peer[456] HopCount ETV
vector 457 Tictoc3.peer[457] HopCount ETV
vector 458 Tictoc3.peer[458] HopCount ETV
vector 459 Tictoc3.peer[459] HopCount ETV
vector 460 Tictoc3.peer[460] HopCount ETV
vector 461 Tictoc3.peer[461] HopCount ETV
vector 462 Tictoc3.peer[462] HopCount ETV
vector 463 Tictoc3.peer[463] HopCount ETV
vector 464 Tictoc3.peer[464] HopCount ETV
vector 465 Tictoc3.peer[465] HopCount ETV
vector 466 Tictoc3.peer[466] HopCount ETV
vector 467 Tictoc3.peer[467] HopCount ETV
vector 468 Tictoc3.peer[468] HopCount ETV
vector 469 Tictoc3.peer[469] HopCount ETV
vector 470 Tictoc3.peer[470] HopCount ETV
vector 471 Tictoc3.peer[471] HopCount ETV
vector 472 Tictoc3.peer[472] HopCount ETV
vector 473 Tictoc3.peer[473] HopCount ETV
vector 474 Tictoc3.peer[474] HopCount ETV
vector 475 Tictoc3.peer[475] HopCount ETV
vector 476 Tictoc3.peer[476] HopCount ETV
vector 477 Tictoc3.peer[477] HopCount ETV
vector 478 Tictoc3.peer[478] HopCount ETV
vector 479 Tictoc3.peer[479] HopCount ETV
vector 480 Tictoc3.peer[480] HopCount ETV
vector 481 Tictoc3.peer[481] HopCount ETV
vector 482 Tictoc3.peer[482] HopCount ETV
vector 483 Tictoc3.peer[483] HopCount ETV
vector 484 Tictoc3.peer[484] HopCount ETV
vector 485 Tictoc3.peer[485] HopCount ETV
vector 486 Tictoc3.peer[486] HopCount ETV
vector 487 Tictoc3.peer[487] HopCount ETV
vector 488 Tictoc3.peer[488] HopCount ETV
vector 489 Tictoc3.peer[489] HopCount ETV
vector 490 Tictoc3.peer[490] HopCount ETV
vector 491 Tictoc3.peer[491] HopCount ETV
vector 492 Tictoc3.peer[492] HopCount ETV
vector 493 Tictoc3.peer[493] HopCount ETV
vector 494 Tictoc3.peer[494] HopCount ETV
vector 495 Tictoc3.peer[495] HopCount ETV
vector 496 Tictoc3.peer[496] HopCount ETV
vector 497 Tictoc3.peer[497] HopCount ETV
vector 498 Tictoc3.peer[498] HopCount ETV
vector 499 Tictoc3.peer[499] HopCount ETV
0	9501	1.5	1
0	15986	2	2
0	23456	2.5	3
0	30441	3.1	4
0	37426	3.7	5
0	44411	4.3	6
0	51396	4.9	7
0	58376	5.5	8
0	65361	6.1	9
0	72346	6.7	10
0	79331	7.3	11
0	86316	7.9	12
0	93296	8.5	13
0	100281	9.1	14
0	107266	9.7	15
0	114251	10.3	16
0	121226	10.9	17
0	128164	11.5	18
0	135095	12.1	19
0	141955	12.7	20
0	148657	13.3	21
0	155346	13.9	22
0	161825	14.5	23
0	168246	15.1	24
0	174537	15.7	25
0	180617	16.3	26
0	186662	16.9	27
0	192567	17.5	28
0	198406	18.1	29
0	204113	18.7	30
0	209580	19.3	31
0	215036	19.9	32
0	220322	20.5	33
0	225405	21.1	34
0	230360	21.7	35
0	235063	22.3	36
0	239774	22.9	37
0	244321	23.5	38
0	248828	24.1	39
0	253239	24.7	40
0	257490	25.3	41
0	261683	25.9	42
1	9502	1.5	1
1	15987	2	2
1	23457	2.5	3
1	24456	2.6	4
1	30442	3.1	4
1	31441	3.2	5
1	37427	3.7	6
1	38426	3.8	6
1	44412	4.3	7
1	45411	4.4	8
1	51397	4.9	9
1	52391	5	10
1	58377	5.5	11
1	59376	5.6	12
1	65362	6.1	13
1	66361	6.2	14
1	72347	6.7	15
1	73346	6.8	16
1	79332	7.3	17
1	80331	7.4	18
1	86317	7.9	19
1	87311	8	20
1	93297	8.5	21
1	94296	8.6	22
1	100282	9.1	23
1	101281	9.2	24
1	107267	9.7	25
1	108266	9.8	26
1	114252	10.3	27
1	115256	10.4	28
1	121227	10.9	29
1	122222	11	30
1	128165	11.5	31
1	129175	11.6	32
1	137523	12.3	33
1	138966	12.4	34
1	146746	13.1	35
1	147688	13.2	36
1	155341	13.9	37
2	9503	1.5	1
2	15988	2	2
2	23458	2.5	3
2	24457	2.6	4
2	30443	3.1	4
2	31442	3.2	5
2	37428	3.7	6
2	38427	3.8	6
2	44413	4.3	7
2	45412	4.4	8
2	51398	4.9	9
2	52392	5	10
2	58378	5.5	11
2	59377	5.6	12
2	65363	6.1	13
2	66362	6.2	14
2	72348	6.7	15
2	73347	6.8	16
2	79333	7.3	17
2	80332	7.4	18
2	86318	7.9	19
2	87312	8	20
2	93298	8.5	21
2	94297	8.6	22
2	100283	9.1	23
2	101282	9.2	24
2	107268	9.7	25
2	108267	9.8	26
2	114253	10.3	27
2	115257	10.4	28
2	121228	10.9	29
2	122223	11	30
2	128166	11.5	31
2	129176	11.6	32
2	137524	12.3	33
2	138967	12.4	34
2	146747	13.1	35
2	147689	13.2	36
2	155342	13.9	37
2	156271	14	38
2	164154	14.7	39
2	165411	14.8	40
2	172634	15.5	41
2	173558	15.6	42
2	180591	16.3	43
2	181501	16.4	44
2	188755	17.1	45
2	189887	17.2	46
2	196608	17.9	47
2	204091	18.7	48
2	208735	19.2	48
2	211497	19.5	49
2	215838	20	49
2	218661	20.3	50
2	223000	20.8	51
2	225367	21.1	52
2	229532	21.6	53
2	231932	21.9	54
2	235802	22.4	55
2	238288	22.7	56
2	242073	23.2	57
2	244286	23.5	58
3	9504	1.5	1
3	15989	2	2
3	23459	2.5	3
3	24458	2.6	4
3	30444	3.1	4
3	31443	3.2	5
3	37429	3.7	6
3	38428	3.8	6
3	44414	4.3	7
3	45413	4.4	8
3	51399	4.9	9
3	52393	5	10
3	58379	5.5	11
3	59378	5.6	12
3	65364	6.1	13
3	66363	6.2	14
3	72349	6.7	15
3	73348	6.8	16
3	79334	7.3	17
3	80333	7.4	18
3	86319	7.9	19
3	87313	8	20
3	93299	8.5	21
3	94298	8.6	22
3	100284	9.1	23
3	101283	9.2	24
3	107269	9.7	25
3	108268	9.8	26
3	114254	10.3	27
3	115258	10.4	28
3	121229	10.9	29
3	122224	11	30
3	128167	11.5	31
3	129177	11.6	32
3	136076	12.2	33
3	137525	12.3	34
3	142911	12.8	35
4	9505	1.5	1
4	15990	2	2
4	23460	2.5	3
4	24459	2.6	4
4	30445	3.1	4
4	31444	3.2	5
4	37430	3.7	6
4	38429	3.8	6
4	44415	4.3	7
4	45414	4.4	8
4	51400	4.9	9
4	52394	5	10
4	58380	5.5	11
4	59379	5.6	12
4	65365	6.1	13
4	66364	6.2	14
4	72350	6.7	15
4	73349	6.8	16
4	79335	7.3	17
4	80334	7.4	18
4	86320	7.9	19
4	87314	8	20
4	93300	8.5	21
4	94299	8.6	22
4	100285	9.1	23
4	101284	9.2	24
4	107270	9.7	25
4	108269	9.8	26
4	114255	10.3	27
4	115259	10.4	28
4	121230	10.9	29
4	122225	11	30
4	128168	11.5	31
4	129178	11.6	32
4	135096	12.1	33
4	138968	12.4	34
4	141956	12.7	35
4	147690	13.2	36
4	151053	13.5	37
4	156272	14	38
4	159958	14.3	39
4	165412	14.8	40
4	168238	15.1	41
4	173559	15.6	42
4	176645	15.9	43
4	181502	16.4	44
4	184890	16.7	45
4	189888	17.2	46
4	192559	17.5	47
4	197457	18	48
4	200302	18.3	49
4	204903	18.8	50
4	207909	19.1	51
4	212518	19.6	52
4	215018	19.9	53
4	219447	20.4	54
4	222109	20.7	55
4	226076	21.2	56
4	228728	21.5	57
4	232732	22	58
4	235031	22.3	59
4	238956	22.8	60
4	241278	23.1	61
4	244971	23.6	62
4	247310	23.9	63
4	250952	24.4	64
4	253209	24.7	65
4	256701	25.2	66
4	258906	25.5	67
4	262253	26	68
4	264332	26.3	69
4	269510	27.1	70
4	274404	27.9	71
4	276181	28.2	72
4	279104	28.7	72
4	280778	29	73
4	285215	29.8	73
4	285699	29.9	74
4	289354	30.6	75
4	291841	31.1	76
4	293288	31.4	77
4	297055	32.2	78
4	297486	32.3	79
4	300687	33	80
4	302780	33.5	81
4	304059	33.8	82
4	307166	34.6	83
4	307557	34.7	84
4	310074	35.4	85
4	311837	35.9	86
4	312823	36.2	87
4	315342	37	88
4	315639	37.1	89
4	317630	37.8	90
4	318850	38.3	91
4	319686	38.6	92
4	321374	39.4	93
4	321595	39.5	94
4	322856	40.2	95
4	323707	40.7	96
4	324678	41.4	97
4	325330	41.9	98
4	326166	42.6	99
4	327417	43.8	99
4	327503	43.9	100
5	9506	1.5	1
5	15991	2	2
5	23461	2.5	3
5	24460	2.6	4
5	30446	3.1	4
5	31445	3.2	5
5	37431	3.7	6
5	38430	3.8	6
5	44416	4.3	7
5	45415	4.4	8
5	51401	4.9	9
5	52395	5	10
5	58381	5.5	11
5	59380	5.6	12
5	65366	6.1	13
5	66365	6.2	14
5	72351	6.7	15
5	73350	6.8	16
5	79336	7.3	17
5	80335	7.4	18
5	86321	7.9	19
5	87315	8	20
5	93301	8.5	21
5	94300	8.6	22
5	100286	9.1	23
5	101285	9.2	24
5	107271	9.7	25
5	108270	9.8	26
5	114256	10.3	27
5	115260	10.4	28
5	121231	10.9	29
5	122226	11	30
5	128169	11.5	31
5	129179	11.6	32
5	135097	12.1	33
5	136077	12.2	34
5	141957	12.7	35
5	142912	12.8	36
5	149649	13.4	37
5	151054	13.5	38
5	156286	14	39
5	159959	14.3	40
5	162802	14.6	41
5	168239	15.1	42
5	171657	15.4	43
5	176646	15.9	44
5	179650	16.2	45
5	184891	16.7	46
5	187503	17	47
5	192560	17.5	48
5	195677	17.8	49
5	200303	18.3	50
5	203138	18.6	51
5	207910	19.1	52
5	210384	19.4	53
5	215019	19.9	54
5	217772	20.2	55
5	224507	21	56
5	226137	21.2	57
5	231019	21.8	57
5	232789	22	58
5	234328	22.2	59
5	237447	22.6	59
5	239012	22.8	60
5	240482	23	61
5	243484	23.4	61
5	245026	23.6	61
5	246614	23.8	62
5	249388	24.2	63
5	251006	24.4	63
5	255317	25	64
5	256744	25.2	65
5	260950	25.8	65
5	262290	26	66
5	263741	26.2	67
5	266267	26.6	67
5	267599	26.8	68
6	9507	1.5	1
6	15992	2	2
6	23462	2.5	3
6	24461	2.6	4
6	30447	3.1	4
6	31446	3.2	5
6	37432	3.7	6
6	38431	3.8	6
6	44417	4.3	7
6	45416	4.4	8
6	51402	4.9	9
6	52396	5	10
6	58382	5.5	11
6	59381	5.6	12
6	65367	6.1	13
6	66366	6.2	14
6	72352	6.7	15
6	73351	6.8	16
6	79337	7.3	17
6	80336	7.4	18
6	86322	7.9	19
6	87316	8	20
6	93302	8.5	21
6	94301	8.6	22
6	100287	9.1	23
6	101286	9.2	24
6	107272	9.7	25
6	108271	9.8	26
6	114257	10.3	27
6	115261	10.4	28
6	121232	10.9	29
6	122227	11	30
6	128170	11.5	31
6	129180	11.6	32
6	135098	12.1	33
6	136078	12.2	34
6	141958	12.7	35
6	142913	12.8	36
6	148658	13.3	37
6	152447	13.6	38
6	155347	13.9	39
6	160880	14.4	40
6	161826	14.5	41
6	169111	15.2	42
6	170391	15.3	43
6	177827	16	44
6	178780	16.1	45
6	185729	16.8	46
6	186636	16.9	47
6	193433	17.6	48
6	194611	17.7	49
6	201361	18.4	50
6	202278	18.5	51
6	208661	19.2	52
6	209535	19.3	53
6	215771	20	54
6	216845	20.1	55
6	223767	20.9	56
6	230326	21.7	57
6	234329	22.2	58
6	236648	22.5	58
6	240483	23	59
6	242814	23.3	60
6	246615	23.8	60
6	248772	24.1	61
6	252498	24.6	62
6	254633	24.9	63
6	258168	25.4	64
6	260362	25.7	65
6	263696	26.2	66
6	265659	26.5	67
7	9508	1.5	1
7	15993	2	2
7	23463	2.5	3
7	24462	2.6	4
7	30448	3.1	4
7	31447	3.2	5
7	37433	3.7	6
7	38432	3.8	6
7	44418	4.3	7
7	45417	4.4	8
7	51403	4.9	9
7	52397	5	10
7	58383	5.5	11
7	59382	5.6	12
7	65368	6.1	13
7	66367	6.2	14
7	72353	6.7	15
7	73352	6.8	16
7	79338	7.3	17
7	80337	7.4	18
7	86323	7.9	19
7	87317	8	20
7	93303	8.5	21
7	94302	8.6	22
7	100288	9.1	23
7	101287	9.2	24
7	107273	9.7	25
7	108272	9.8	26
7	114258	10.3	27
7	115262	10.4	28
7	121233	10.9	29
7	122228	11	30
7	128171	11.5	31
7	129181	11.6	32
7	135099	12.1	33
7	136079	12.2	34
7	141959	12.7	35
7	142914	12.8	36
7	148659	13.3	37
7	149650	13.4	38
7	155348	13.9	39
7	156287	14	40
7	161827	14.5	41
7	162803	14.6	42
8	9509	1.5	1
8	15994	2	2
8	23464	2.5	3
8	24463	2.6	4
8	30449	3.1	4
8	31448	3.2	5
8	37434	3.7	6
8	38433	3.8	6
8	44419	4.3	7
8	45418	4.4	8
8	51404	4.9	9
8	52398	5	10
8	58384	5.5	11
8	59383	5.6	12
8	65369	6.1	13
8	66368	6.2	14
8	72354	6.7	15
8	73353	6.8	16
8	79339	7.3	17
8	80338	7.4	18
8	86324	7.9	19
8	87318	8	20
8	93304	8.5	21
8	94303	8.6	22
8	100289	9.1	23
8	101288	9.2	24
8	107274	9.7	25
8	108273	9.8	26
8	114259	10.3	27
8	115263	10.4	28
8	121234	10.9	29
8	122229	11	30
8	128172	11.5	31
8	129182	11.6	32
8	135100	12.1	33
8	136080	12.2	34
8	141960	12.7	35
8	142915	12.8	36
8	148660	13.3	37
8	149651	13.4	38
8	155349	13.9	39
8	156288	14	40
8	161828	14.5	41
8	162804	14.6	42
8	170393	15.3	43
8	171659	15.4	44
8	178781	16.1	45
8	179651	16.2	46
8	186637	16.9	47
8	187504	17	48
8	194612	17.7	49
8	195678	17.8	50
8	202279	18.5	51
8	203139	18.6	52
8	209536	19.3	53
8	210385	19.4	54
8	216846	20.1	55
8	217773	20.2	56
8	223768	20.9	57
8	224508	21	58
8	230327	21.7	59
8	231020	21.8	60
8	236649	22.5	61
8	237448	22.6	62
8	242815	23.3	63
8	243485	23.4	64
8	248773	24.1	65
8	249389	24.2	66
8	254634	24.9	67
8	255318	25	68
8	260363	25.7	69
8	260951	25.8	70
8	265660	26.5	71
8	266268	26.6	72
8	270720	27.3	73
8	271303	27.4	74
8	275607	28.1	75
8	276104	28.2	76
8	280197	28.9	77