version 3
run Tictoc3-0-20240214-21:53:44-10096
attr configname Tictoc3
attr datetime 20240214-21:53:44
attr datetimef 20240214-215344
attr experiment Tictoc3
attr inifile omnetpp.ini
attr iterationvars ""
attr iterationvarsd ""
attr iterationvarsf ""
attr measurement ""
attr network Tictoc3
attr processid 10096
attr repetition 0
attr replication #0
attr resultdir results
attr runnumber 0
attr seedset 0
config network Tictoc3

vector 0 Tictoc3.peer[0] HopCount ETV
vector 1 Tictoc3.peer[1] HopCount ETV
vector 2 Tictoc3.peer[2] HopCount ETV
vector 3 Tictoc3.peer[3] HopCount ETV
vector 4 Tictoc3.peer[4] HopCount ETV
vector 5 Tictoc3.peer[5] HopCount ETV
vector 6 Tictoc3.peer[6] HopCount ETV
vector 7 Tictoc3.peer[7] HopCount ETV
vector 8 Tictoc3.peer[8] HopCount ETV
vector 9 Tictoc3.peer[9] HopCount ETV
vector 10 Tictoc3.peer[10] HopCount ETV
vector 11 Tictoc3.peer[11] HopCount ETV
vector 12 Tictoc3.peer[12] HopCount ETV
vector 13 Tictoc3.peer[13] HopCount ETV
vector 14 Tictoc3.peer[14] HopCount ETV
vector 15 Tictoc3.peer[15] HopCount ETV
vector 16 Tictoc3.peer[16] HopCount ETV
vector 17 Tictoc3.peer[17] HopCount ETV
vector 18 Tictoc3.peer[18] HopCount ETV
vector 19 Tictoc3.peer[19] HopCount ETV
vector 20 Tictoc3.peer[20] HopCount ETV
vector 21 Tictoc3.peer[21] HopCount ETV
vector 22 Tictoc3.peer[22] HopCount ETV
vector 23 Tictoc3.peer[23] HopCount ETV
vector 24 Tictoc3.peer[24] HopCount ETV
vector 25 Tictoc3.peer[25] HopCount ETV
vector 26 Tictoc3.peer[26] HopCount ETV
vector 27 Tictoc3.peer[27] HopCount ETV
vector 28 Tictoc3.peer[28] HopCount ETV
vector 29 Tictoc3.peer[29] HopCount ETV
vector 30 Tictoc3.peer[30] HopCount ETV
vector 31 Tictoc3.peer[31] HopCount ETV
vector 32 Tictoc3.peer[32] HopCount ETV
vector 33 Tictoc3.peer[33] HopCount ETV
vector 34 Tictoc3.peer[34] HopCount ETV
vector 35 Tictoc3.peer[35] HopCount ETV
vector 36 Tictoc3.peer[36] HopCount ETV
vector 37 Tictoc3.peer[37] HopCount ETV
vector 38 Tictoc3.peer[38] HopCount ETV
vector 39 Tictoc3.peer[39] HopCount ETV
vector 40 Tictoc3.peer[40] HopCount ETV
vector 41 Tictoc3.peer[41] HopCount ETV
vector 42 Tictoc3.peer[42] HopCount ETV
vector 43 Tictoc3.peer[43] HopCount ETV
vector 44 Tictoc3.peer[44] HopCount ETV
vector 45 Tictoc3.peer[45] HopCount ETV
vector 46 Tictoc3.peer[46] HopCount ETV
vector 47 Tictoc3.peer[47] HopCount ETV
vector 48 Tictoc3.peer[48] HopCount ETV
vector 49 Tictoc3.peer[49] HopCount ETV
vector 50 Tictoc3.peer[50] HopCount ETV
vector 51 Tictoc3.peer[51] HopCount ETV
vector 52 Tictoc3.peer[52] HopCount ETV
vector 53 Tictoc3.peer[53] HopCount ETV
vector 54 Tictoc3.peer[54] HopCount ETV
vector 55 Tictoc3.peer[55] HopCount ETV
vector 56 Tictoc3.peer[56] HopCount ETV
vector 57 Tictoc3.peer[57] HopCount ETV
vector 58 Tictoc3.peer[58] HopCount ETV
vector 59 Tictoc3.peer[59] HopCount ETV
vector 60 Tictoc3.peer[60] HopCount ETV
vector 61 Tictoc3.peer[61] HopCount ETV
vector 62 Tictoc3.peer[62] HopCount ETV
vector 63 Tictoc3.peer[63] HopCount ETV
vector 64 Tictoc3.peer[64] HopCount ETV
vector 65 Tictoc3.peer[65] HopCount ETV
vector 66 Tictoc3.peer[66] HopCount ETV
vector 67 Tictoc3.peer[67] HopCount ETV
vector 68 Tictoc3.peer[68] HopCount ETV
vector 69 Tictoc3.peer[69] HopCount ETV
vector 70 Tictoc3.peer[70] HopCount ETV
vector 71 Tictoc3.peer[71] HopCount ETV
vector 72 Tictoc3.peer[72] HopCount ETV
vector 73 Tictoc3.peer[73] HopCount ETV
vector 74 Tictoc3.peer[74] HopCount ETV
vector 75 Tictoc3.peer[75] HopCount ETV
vector 76 Tictoc3.peer[76] HopCount ETV
vector 77 Tictoc3.peer[77] HopCount ETV
vector 78 Tictoc3.peer[78] HopCount ETV
vector 79 Tictoc3.peer[79] HopCount ETV
vector 80 Tictoc3.peer[80] HopCount ETV
vector 81 Tictoc3.peer[81] HopCount ETV
vector 82 Tictoc3.peer[82] HopCount ETV
vector 83 Tictoc3.peer[83] HopCount ETV
vector 84 Tictoc3.peer[84] HopCount ETV
vector 85 Tictoc3.peer[85] HopCount ETV
vector 86 Tictoc3.peer[86] HopCount ETV
vector 87 Tictoc3.peer[87] HopCount ETV
vector 88 Tictoc3.peer[88] HopCount ETV
vector 89 Tictoc3.peer[89] HopCount ETV
vector 90 Tictoc3.peer[90] HopCount ETV
vector 91 Tictoc3.peer[91] HopCount ETV
vector 92 Tictoc3.peer[92] HopCount ETV
vector 93 Tictoc3.peer[93] HopCount ETV
vector 94 Tictoc3.peer[94] HopCount ETV
vector 95 Tictoc3.peer[95] HopCount ETV
vector 96 Tictoc3.peer[96] HopCount ETV
vector 97 Tictoc3.peer[97] HopCount ETV
vector 98 Tictoc3.peer[98] HopCount ETV
vector 99 Tictoc3.peer[99] HopCount ETV
vector 100 Tictoc3.peer[100] HopCount ETV
vector 101 Tictoc3.peer[101] HopCount ETV
vector 102 Tictoc3.peer[102] HopCount ETV
vector 103 Tictoc3.peer[103] HopCount ETV
vector 104 Tictoc3.peer[104] HopCount ETV
vector 105 Tictoc3.peer[105] HopCount ETV
vector 106 Tictoc3.peer[106] HopCount ETV
vector 107 Tictoc3.peer[107] HopCount ETV
vector 108 Tictoc3.peer[108] HopCount ETV
vector 109 Tictoc3.peer[109] HopCount ETV
vector 110 Tictoc3.peer[110] HopCount ETV
vector 111 Tictoc3.peer[111] HopCount ETV
vector 112 Tictoc3.peer[112] HopCount ETV
vector 113 Tictoc3.peer[113] HopCount ETV
vector 114 Tictoc3.peer[114] HopCount ETV
vector 115 Tictoc3.peer[115] HopCount ETV
vector 116 Tictoc3.peer[116] HopCount ETV
vector 117 Tictoc3.peer[117] HopCount ETV
vector 118 Tictoc3.peer[118] HopCount ETV
vector 119 Tictoc3.peer[119] HopCount ETV
vector 120 Tictoc3.peer[120] HopCount ETV
vector 121 Tictoc3.peer[121] HopCount ETV
vector 122 Tictoc3.peer[122] HopCount ETV
vector 123 Tictoc3.peer[123] HopCount ETV
vector 124 Tictoc3.peer[124] HopCount ETV
vector 125 Tictoc3.peer[125] HopCount ETV
vector 126 Tictoc3.peer[126] HopCount ETV
vector 127 Tictoc3.peer[127] HopCount ETV
vector 128 Tictoc3.peer[128] HopCount ETV
vector 129 Tictoc3.peer[129] HopCount ETV
vector 130 Tictoc3.peer[130] HopCount ETV
vector 131 Tictoc3.peer[131] HopCount ETV
vector 132 Tictoc3.peer[132] HopCount ETV
vector 133 Tictoc3.peer[133] HopCount ETV
vector 134 Tictoc3.peer[134] HopCount ETV
vector 135 Tictoc3.peer[135] HopCount ETV
vector 136 Tictoc3.peer[136] HopCount ETV
vector 137 Tictoc3.peer[137] HopCount ETV
vector 138 Tictoc3.peer[138] HopCount ETV
vector 139 Tictoc3.peer[139] HopCount ETV
vector 140 Tictoc3.peer[140] HopCount ETV
vector 141 Tictoc3.peer[141] HopCount ETV
vector 142 Tictoc3.peer[142] HopCount ETV
vector 143 Tictoc3.peer[143] HopCount ETV
vector 144 Tictoc3.peer[144] HopCount ETV
vector 145 Tictoc3.peer[145] HopCount ETV
vector 146 Tictoc3.peer[146] HopCount ETV
vector 147 Tictoc3.peer[147] HopCount ETV
vector 148 Tictoc3.peer[148] HopCount ETV
vector 149 Tictoc3.peer[149] HopCount ETV
vector 150 Tictoc3.peer[150] HopCount ETV
vector 151 Tictoc3.peer[151] HopCount ETV
vector 152 Tictoc3.peer[152] HopCount ETV
vector 153 Tictoc3.peer[153] HopCount ETV
vector 154 Tictoc3.peer[154] HopCount ETV
vector 155 Tictoc3.peer[155] HopCount ETV
vector 156 Tictoc3.peer[156] HopCount ETV
vector 157 Tictoc3.peer[157] HopCount ETV
vector 158 Tictoc3.peer[158] HopCount ETV
vector 159 Tictoc3.peer[159] HopCount ETV
vector 160 Tictoc3.peer[160] HopCount ETV
vector 161 Tictoc3.peer[161] HopCount ETV
vector 162 Tictoc3.peer[162] HopCount ETV
vector 163 Tictoc3.peer[163] HopCount ETV
vector 164 Tictoc3.peer[164] HopCount ETV
vector 165 Tictoc3.peer[165] HopCount ETV
vector 166 Tictoc3.peer[166] HopCount ETV
vector 167 Tictoc3.peer[167] HopCount ETV
vector 168 Tictoc3.peer[168] HopCount ETV
vector 169 Tictoc3.peer[169] HopCount ETV
vector 170 Tictoc3.peer[170] HopCount ETV
vector 171 Tictoc3.peer[171] HopCount ETV
vector 172 Tictoc3.peer[172] HopCount ETV
vector 173 Tictoc3.peer[173] HopCount ETV
vector 174 Tictoc3.peer[174] HopCount ETV
vector 175 Tictoc3.peer[175] HopCount ETV
vector 176 Tictoc3.peer[176] HopCount ETV
vector 177 Tictoc3.peer[177] HopCount ETV
vector 178 Tictoc3.peer[178] HopCount ETV
vector 179 Tictoc3.peer[179] HopCount ETV
vector 180 Tictoc3.peer[180] HopCount ETV
vector 181 Tictoc3.peer[181] HopCount ETV
vector 182 Tictoc3.peer[182] HopCount ETV
vector 183 Tictoc3.peer[183] HopCount ETV
vector 184 Tictoc3.peer[184] HopCount ETV
vector 185 Tictoc3.peer[185] HopCount ETV
vector 186 Tictoc3.peer[186] HopCount ETV
vector 187 Tictoc3.peer[187] HopCount ETV
vector 188 Tictoc3.peer[188] HopCount ETV
vector 189 Tictoc3.peer[189] HopCount ETV
vector 190 Tictoc3.peer[190] HopCount ETV
vector 191 Tictoc3.peer[191] HopCount ETV
vector 192 Tictoc3.peer[192] HopCount ETV
vector 193 Tictoc3.peer[193] HopCount ETV
vector 194 Tictoc3.peer[194] HopCount ETV
vector 195 Tictoc3.peer[195] HopCount ETV
vector 196 Tictoc3.peer[196] HopCount ETV
vector 197 Tictoc3.peer[197] HopCount ETV
vector 198 Tictoc3.peer[198] HopCount ETV
vector 199 Tictoc3.peer[199] HopCount ETV
vector 200 Tictoc3.peer[200] HopCount ETV
vector 201 Tictoc3.peer[201] HopCount ETV
vector 202 Tictoc3.peer[202] HopCount ETV
vector 203 Tictoc3.peer[203] HopCount ETV
vector 204 Tictoc3.peer[204] HopCount ETV
vector 205 Tictoc3.peer[205] HopCount ETV
vector 206 Tictoc3.peer[206] HopCount ETV
vector 207 Tictoc3.peer[207] HopCount ETV
vector 208 Tictoc3.peer[208] HopCount ETV
vector 209 Tictoc3.peer[209] HopCount ETV
vector 210 Tictoc3.peer[210] HopCount ETV
vector 211 Tictoc3.peer[211] HopCount ETV
vector 212 Tictoc3.peer[212] HopCount ETV
vector 213 Tictoc3.peer[213] HopCount ETV
vector 214 Tictoc3.peer[214] HopCount ETV
vector 215 Tictoc3.peer[215] HopCount ETV
vector 216 Tictoc3.peer[216] HopCount ETV
vector 217 Tictoc3.peer[217] HopCount ETV
vector 218 Tictoc3.peer[218] HopCount ETV
vector 219 Tictoc3.peer[219] HopCount ETV
vector 220 Tictoc3.peer[220] HopCount ETV
vector 221 Tictoc3.peer[221] HopCount ETV
vector 222 Tictoc3.peer[222] HopCount ETV
vector 223 Tictoc3.peer[223] HopCount ETV
vector 224 Tictoc3.peer[224] HopCount ETV
vector 225 Tictoc3.peer[225] HopCount ETV
vector 226 Tictoc3.peer[226] HopCount ETV
vector 227 Tictoc3.peer[227] HopCount ETV
vector 228 Tictoc3.peer[228] HopCount ETV
vector 229 Tictoc3.peer[229] HopCount ETV
vector 230 Tictoc3.peer[230] HopCount ETV
vector 231 Tictoc3.peer[231] HopCount ETV
vector 232 Tictoc3.peer[232] HopCount ETV
vector 233 Tictoc3.peer[233] HopCount ETV
vector 234 Tictoc3.peer[234] HopCount ETV
vector 235 Tictoc3.peer[235] HopCount ETV
vector 236 Tictoc3.peer[236] HopCount ETV
vector 237 Tictoc3.peer[237] HopCount ETV
vector 238 Tictoc3.peer[238] HopCount ETV
vector 239 Tictoc3.peer[239] HopCount ETV
vector 240 Tictoc3.peer[240] HopCount ETV
vector 241 Tictoc3.peer[241] HopCount ETV
vector 242 Tictoc3.peer[242] HopCount ETV
vector 243 Tictoc3.peer[243] HopCount ETV
vector 244 Tictoc3.peer[244] HopCount ETV
vector 245 Tictoc3.peer[245] HopCount ETV
vector 246 Tictoc3.peer[246] HopCount ETV
vector 247 Tictoc3.peer[247] HopCount ETV
vector 248 Tictoc3.peer[248] HopCount ETV
vector 249 Tictoc3.peer[249] HopCount ETV
vector 250 Tictoc3.peer[250] HopCount ETV
vector 251 Tictoc3.peer[251] HopCount ETV
vector 252 Tictoc3.peer[252] HopCount ETV
vector 253 Tictoc3.peer[253] HopCount ETV
vector 254 Tictoc3.peer[254] HopCount ETV
vector 255 Tictoc3.peer[255] HopCount ETV
vector 256 Tictoc3.peer[256] HopCount ETV
vector 257 Tictoc3.peer[257] HopCount ETV
vector 258 Tictoc3.peer[258] HopCount ETV
vector 259 Tictoc3.peer[259] HopCount ETV
vector 260 Tictoc3.peer[260] HopCount ETV
vector 261 Tictoc3.peer[261] HopCount ETV
vector 262 Tictoc3.peer[262] HopCount ETV
vector 263 Tictoc3.peer[263] HopCount ETV
vector 264 Tictoc3.peer[264] HopCount ETV
vector 265 Tictoc3.peer[265] HopCount ETV
vector 266 Tictoc3.peer[266] HopCount ETV
vector 267 Tictoc3.peer[267] HopCount ETV
vector 268 Tictoc3.peer[268] HopCount ETV
vector 269 Tictoc3.peer[269] HopCount ETV
vector 270 Tictoc3.peer[270] HopCount ETV
vector 271 Tictoc3.peer[271] HopCount ETV
vector 272 Tictoc3.peer[272] HopCount ETV
vector 273 Tictoc3.peer[273] HopCount ETV
vector 274 Tictoc3.peer[274] HopCount ETV
vector 275 Tictoc3.peer[275] HopCount ETV
vector 276 Tictoc3.peer[276] HopCount ETV
vector 277 Tictoc3.peer[277] HopCount ETV
vector 278 Tictoc3.peer[278] HopCount ETV
vector 279 Tictoc3.peer[279] HopCount ETV
vector 280 Tictoc3.peer[280] HopCount ETV
vector 281 Tictoc3.peer[281] HopCount ETV
vector 282 Tictoc3.peer[282] HopCount ETV
vector 283 Tictoc3.peer[283] HopCount ETV
vector 284 Tictoc3.peer[284] HopCount ETV
vector 285 Tictoc3.peer[285] HopCount ETV
vector 286 Tictoc3.peer[286] HopCount ETV
vector 287 Tictoc3.peer[287] HopCount ETV
vector 288 Tictoc3.peer[288] HopCount ETV
vector 289 Tictoc3.peer[289] HopCount ETV
vector 290 Tictoc3.peer[290] HopCount ETV
vector 291 Tictoc3.peer[291] HopCount ETV
vector 292 Tictoc3.peer[292] HopCount ETV
vector 293 Tictoc3.peer[293] HopCount ETV
vector 294 Tictoc3.peer[294] HopCount ETV
vector 295 Tictoc3.peer[295] HopCount ETV
vector 296 Tictoc3.peer[296] HopCount ETV
vector 297 Tictoc3.peer[297] HopCount ETV
vector 298 Tictoc3.peer[298] HopCount ETV
vector 299 Tictoc3.peer[299] HopCount ETV
vector 300 Tictoc3.peer[300] HopCount ETV
vector 301 Tictoc3.peer[301] HopCount ETV
vector 302 Tictoc3.peer[302] HopCount ETV
vector 303 Tictoc3.peer[303] HopCount ETV
vector 304 Tictoc3.peer[304] HopCount ETV
vector 305 Tictoc3.peer[305] HopCount ETV
vector 306 Tictoc3.peer[306] HopCount ETV
vector 307 Tictoc3.peer[307] HopCount ETV
vector 308 Tictoc3.peer[308] HopCount ETV
vector 309 Tictoc3.peer[309] HopCount ETV
vector 310 Tictoc3.peer[310] HopCount ETV
vector 311 Tictoc3.peer[311] HopCount ETV
vector 312 Tictoc3.peer[312] HopCount ETV
vector 313 Tictoc3.peer[313] HopCount ETV
vector 314 Tictoc3.peer[314] HopCount ETV
vector 315 Tictoc3.peer[315] HopCount ETV
vector 316 Tictoc3.peer[316] HopCount ETV
vector 317 Tictoc3.peer[317] HopCount ETV
vector 318 Tictoc3.peer[318] HopCount ETV
vector 319 Tictoc3.peer[319] HopCount ETV
vector 320 Tictoc3.peer[320] HopCount ETV
vector 321 Tictoc3.peer[321] HopCount ETV
vector 322 Tictoc3.peer[322] HopCount ETV
vector 323 Tictoc3.peer[323] HopCount ETV
vector 324 Tictoc3.peer[324] HopCount ETV
vector 325 Tictoc3.peer[325] HopCount ETV
vector 326 Tictoc3.peer[326] HopCount ETV
vector 327 Tictoc3.peer[327] HopCount ETV
vector 328 Tictoc3.peer[328] HopCount ETV
vector 329 Tictoc3.peer[329] HopCount ETV
vector 330 Tictoc3.peer[330] HopCount ETV
vector 331 Tictoc3.peer[331] HopCount ETV
vector 332 Tictoc3.peer[332] HopCount ETV
vector 333 Tictoc3.peer[333] HopCount ETV
vector 334 Tictoc3.peer[334] HopCount ETV
vector 335 Tictoc3.peer[335] HopCount ETV
vector 336 Tictoc3.peer[336] HopCount ETV
vector 337 Tictoc3.peer[337] HopCount ETV
vector 338 Tictoc3.peer[338] HopCount ETV
vector 339 Tictoc3.peer[339] HopCount ETV
vector 340 Tictoc3.peer[340] HopCount ETV
vector 341 Tictoc3.peer[341] HopCount ETV
vector 342 Tictoc3.peer[342] HopCount ETV
vector 343 Tictoc3.peer[343] HopCount ETV
vector 344 Tictoc3.peer[344] HopCount ETV
vector 345 Tictoc3.peer[345] HopCount ETV
vector 346 Tictoc3.peer[346] HopCount ETV
vector 347 Tictoc3.peer[347] HopCount ETV
vector 348 Tictoc3.peer[348] HopCount ETV
vector 349 Tictoc3.peer[349] HopCount ETV
vector 350 Tictoc3.peer[350] HopCount ETV
vector 351 Tictoc3.peer[351] HopCount ETV
vector 352 Tictoc3.peer[352] HopCount ETV
vector 353 Tictoc3.peer[353] HopCount ETV
vector 354 Tictoc3.peer[354] HopCount ETV
vector 355 Tictoc3.peer[355] HopCount ETV
vector 356 Tictoc3.peer[356] HopCount ETV
vector 357 Tictoc3.peer[357] HopCount ETV
vector 358 Tictoc3.peer[358] HopCount ETV
vector 359 Tictoc3.peer[359] HopCount ETV
vector 360 Tictoc3.peer[360] HopCount ETV
vector 361 Tictoc3.peer[361] HopCount ETV
vector 362 Tictoc3.peer[362] HopCount ETV
vector 363 Tictoc3.peer[363] HopCount ETV
vector 364 Tictoc3.peer[364] HopCount ETV
vector 365 Tictoc3.peer[365] HopCount ETV
vector 366 Tictoc3.peer[366] HopCount ETV
vector 367 Tictoc3.peer[367] HopCount ETV
vector 368 Tictoc3.peer[368] HopCount ETV
vector 369 Tictoc3.peer[369] HopCount ETV
vector 370 Tictoc3.peer[370] HopCount ETV
vector 371 Tictoc3.peer[371] HopCount ETV
vector 372 Tictoc3.peer[372] HopCount ETV
vector 373 Tictoc3.peer[373] HopCount ETV
vector 374 Tictoc3.peer[374] HopCount ETV
vector 375 Tictoc3.peer[375] HopCount ETV
vector 376 Tictoc3.peer[376] HopCount ETV
vector 377 Tictoc3.peer[377] HopCount ETV
vector 378 Tictoc3.peer[378] HopCount ETV
vector 379 Tictoc3.peer[379] HopCount ETV
vector 380 Tictoc3.peer[380] HopCount ETV
vector 381 Tictoc3.peer[381] HopCount ETV
vector 382 Tictoc3.peer[382] HopCount ETV
vector 383 Tictoc3.peer[383] HopCount ETV
vector 384 Tictoc3.peer[384] HopCount ETV
vector 385 Tictoc3.peer[385] HopCount ETV
vector 386 Tictoc3.peer[386] HopCount ETV
vector 387 Tictoc3.peer[387] HopCount ETV
vector 388 Tictoc3.peer[388] HopCount ETV
vector 389 Tictoc3.peer[389] HopCount ETV
vector 390 Tictoc3.peer[390] HopCount ETV
vector 391 Tictoc3.peer[391] HopCount ETV
vector 392 Tictoc3.peer[392] HopCount ETV
vector 393 Tictoc3.peer[393] HopCount ETV
vector 394 Tictoc3.peer[394] HopCount ETV
vector 395 Tictoc3.peer[395] HopCount ETV
vector 396 Tictoc3.peer[396] HopCount ETV
vector 397 Tictoc3.peer[397] HopCount ETV
vector 398 Tictoc3.peer[398] HopCount ETV
vector 399 Tictoc3.peer[399] HopCount ETV
vector 400 Tictoc3.peer[400] HopCount ETV
vector 401 Tictoc3.peer[401] HopCount ETV
vector 402 Tictoc3.peer[402] HopCount ETV
vector 403 Tictoc3.peer[403] HopCount ETV
vector 404 Tictoc3.peer[404] HopCount ETV
vector 405 Tictoc3.peer[405] HopCount ETV
vector 406 Tictoc3.peer[406] HopCount ETV
vector 407 Tictoc3.peer[407] HopCount ETV
vector 408 Tictoc3.peer[408] HopCount ETV
vector 409 Tictoc3.peer[409] HopCount ETV
vector 410 Tictoc3.peer[410] HopCount ETV
vector 411 Tictoc3.peer[411] HopCount ETV
vector 412 Tictoc3.peer[412] HopCount ETV
vector 413 Tictoc3.peer[413] HopCount ETV
vector 414 Tictoc3.peer[414] HopCount ETV
vector 415 Tictoc3.peer[415] HopCount ETV
vector 416 Tictoc3.peer[416] HopCount ETV
vector 417 Tictoc3.peer[417] HopCount ETV
vector 418 Tictoc3.peer[418] HopCount ETV
vector 419 Tictoc3.peer[419] HopCount ETV
vector 420 Tictoc3.peer[420] HopCount ETV
vector 421 Tictoc3.peer[421] HopCount ETV
vector 422 Tictoc3.peer[422] HopCount ETV
vector 423 Tictoc3.peer[423] HopCount ETV
vector 424 Tictoc3.peer[424] HopCount ETV
vector 425 Tictoc3.peer[425] HopCount ETV
vector 426 Tictoc3.peer[426] HopCount ETV
vector 427 Tictoc3.peer[427] HopCount ETV
vector 428 Tictoc3.peer[428] HopCount ETV
vector 429 Tictoc3.peer[429] HopCount ETV
vector 430 Tictoc3.peer[430] HopCount ETV
vector 431 Tictoc3.peer[431] HopCount ETV
vector 432 Tictoc3.peer[432] HopCount ETV
vector 433 Tictoc3.peer[433] HopCount ETV
vector 434 Tictoc3.peer[434] HopCount ETV
vector 435 Tictoc3.peer[435] HopCount ETV
vector 436 Tictoc3.peer[436] HopCount ETV
vector 437 Tictoc3.peer[437] HopCount ETV
vector 438 Tictoc3.peer[438] HopCount ETV
vector 439 Tictoc3.peer[439] HopCount ETV
vector 440 Tictoc3.peer[440] HopCount ETV
vector 441 Tictoc3.peer[441] HopCount ETV
vector 442 Tictoc3.peer[442] HopCount ETV
vector 443 Tictoc3.peer[443] HopCount ETV
vector 444 Tictoc3.peer[444] HopCount ETV
vector 445 Tictoc3.peer[445] HopCount ETV
vector 446 Tictoc3.peer[446] HopCount ETV
vector 447 Tictoc3.peer[447] HopCount ETV
vector 448 Tictoc3.peer[448] HopCount ETV
vector 449 Tictoc3.peer[449] HopCount ETV
vector 450 Tictoc3.peer[450] HopCount ETV
vector 451 Tictoc3.peer[451] HopCount ETV
vector 452 Tictoc3.peer[452] HopCount ETV
vector 453 Tictoc3.peer[453] HopCount ETV
vector 454 Tictoc3.peer[454] HopCount ETV
vector 455 Tictoc3.peer[455] HopCount ETV
vector 456 Tictoc3.peer[456] HopCount ETV
vector 457 Tictoc3.peer[457] HopCount ETV
vector 458 Tictoc3.peer[458] HopCount ETV
vector 459 Tictoc3.peer[459] HopCount ETV
vector 460 Tictoc3.peer[460] HopCount ETV
vector 461 Tictoc3.peer[461] HopCount ETV
vector 462 Tictoc3.peer[462] HopCount ETV
vector 463 Tictoc3.peer[463] HopCount ETV
vector 464 Tictoc3.peer[464] HopCount ETV
vector 465 Tictoc3.peer[465] HopCount ETV
vector 466 Tictoc3.peer[466] HopCount ETV
vector 467 Tictoc3.peer[467] HopCount ETV
vector 468 Tictoc3.peer[468] HopCount ETV
vector 469 Tictoc3.peer[469] HopCount ETV
vector 470 Tictoc3.peer[470] HopCount ETV
vector 471 Tictoc3.peer[471] HopCount ETV
vector 472 Tictoc3.peer[472] HopCount ETV
vector 473 Tictoc3.peer[473] HopCount ETV
vector 474 Tictoc3.peer[474] HopCount ETV
vector 475 Tictoc3.peer[475] HopCount ETV
vector 476 Tictoc3.peer[476] HopCount ETV
vector 477 Tictoc3.peer[477] HopCount ETV
vector 478 Tictoc3.peer[478] HopCount ETV
vector 479 Tictoc3.peer[479] HopCount ETV
vector 480 Tictoc3.peer[480] HopCount ETV
vector 481 Tictoc3.peer[481] HopCount ETV
vector 482 Tictoc3.peer[482] HopCount ETV
vector 483 Tictoc3.peer[483] HopCount ETV
vector 484 Tictoc3.peer[484] HopCount ETV
vector 485 Tictoc3.peer[485] HopCount ETV
vector 486 Tictoc3.peer[486] HopCount ETV
vector 487 Tictoc3.peer[487] HopCount ETV
vector 488 Tictoc3.peer[488] HopCount ETV
vector 489 Tictoc3.peer[489] HopCount ETV
vector 490 Tictoc3.peer[490] HopCount ETV
vector 491 Tictoc3.peer[491] HopCount ETV
vector 492 Tictoc3.peer[492] HopCount ETV
vector 493 Tictoc3.peer[493] HopCount ETV
vector 494 Tictoc3.peer[494] HopCount ETV
vector 495 Tictoc3.peer[495] HopCount ETV
vector 496 Tictoc3.peer[496] HopCount ETV
vector 497 Tictoc3.peer[497] HopCount ETV
vector 498 Tictoc3.peer[498] HopCount ETV
vector 499 Tictoc3.peer[499] HopCount ETV
0	9501	1.5	1
0	14486	2	2
0	19956	2.5	3
0	24941	3.1	4
0	29426	3.7	5
0	34411	4.3	6
0	38896	4.9	7
0	43876	5.5	8
0	48361	6.1	9
0	53346	6.7	10
0	57831	7.3	11
0	62816	7.9	12
0	67296	8.5	13
0	72281	9.1	14
0	76766	9.7	15
0	81779	10.3	16
0	86325	10.9	17
0	91318	11.5	18
0	95759	12.1	19
0	100696	12.7	20
0	104987	13.3	21
0	109799	13.9	22
0	113986	14.5	23
0	118560	15.1	24
0	122654	15.7	25
0	126974	16.3	26
0	130903	16.9	27
0	135165	17.5	28
0	138934	18.1	29
0	143013	18.7	30
0	146498	19.3	31
0	150475	19.9	32
0	153541	20.4	33
0	156446	20.9	34
0	159353	21.4	35
0	162546	21.9	36
0	165326	22.4	37
0	168083	22.9	38
0	170743	23.4	39
0	173705	23.9	40
0	176306	24.4	41
0	178853	24.9	42
0	181380	25.4	43
0	184149	25.9	44
0	186554	26.4	45
0	188930	26.9	46
0	191191	27.4	47
0	193732	27.9	48
0	195934	28.4	49
0	198064	28.9	50
0	200813	29.5	51
0	203221	30.1	52
0	205841	30.7	53
0	208017	31.3	54
0	210415	31.9	55
0	212422	32.5	56
0	214539	33.1	57
0	216301	33.7	58
0	218058	34.3	59
0	219408	34.9	60
0	220658	35.5	61
0	221578	36.1	62
0	222413	36.7	63
0	222972	37.3	64
0	223474	37.9	65
0	223819	38.5	66
0	224134	39.1	67
0	224346	39.7	68
0	224541	40.3	69
0	224688	40.9	70
0	224818	41.5	71
0	224906	42.1	72
0	224999	42.7	73
0	225057	43.3	74
0	225110	43.9	75
0	225148	44.5	76
0	225194	45.1	77
0	225228	45.7	78
0	225269	46.3	79
0	225301	46.9	80
0	225340	47.5	81
0	225374	48.1	82
0	225409	48.7	83
0	225438	49.3	84
0	225472	49.9	85
0	225502	50.5	86
0	225537	51.1	87
0	225566	51.7	88
0	225600	52.3	89
0	225630	52.9	90
0	225665	53.5	91
0	225694	54.1	92
0	225728	54.7	93
0	225758	55.3	94
0	225793	55.9	95
0	225822	56.5	96
0	225855	57.1	97
0	225880	57.7	98
0	225910	58.3	99
0	225930	58.9	100
1	9502	1.5	1
1	14487	2	2
1	19957	2.5	3
1	20456	2.6	4
1	24942	3.1	4
1	25441	3.2	5
1	29427	3.7	6
1	29926	3.8	6
1	34412	4.3	7
1	34911	4.4	8
1	38897	4.9	9
1	39391	5	10
1	43877	5.5	11
1	44376	5.6	12
1	48362	6.1	13
1	48861	6.2	14
1	53347	6.7	15
1	53846	6.8	16
1	57832	7.3	17
1	58331	7.4	18
1	62817	7.9	19
1	63311	8	20
1	67297	8.5	21
1	67796	8.6	22
1	72282	9.1	23
1	72781	9.2	24
1	76767	9.7	25
1	77266	9.8	26
1	81780	10.3	27
1	82333	10.4	28
1	86326	10.9	29
1	86841	11	30
1	91319	11.5	31
1	91870	11.6	32
1	97655	12.3	33
1	98584	12.4	34
1	103946	13.1	35
1	104483	13.2	36
1	109783	13.9	37
1	110286	14	38
1	115837	14.7	39
1	116549	14.8	40
1	121549	15.5	41
1	122067	15.6	42
1	126950	16.3	43
1	127487	16.4	44
1	132549	17.1	45
1	133215	17.2	46
1	137880	17.9	47
1	138353	18	48
1	142989	18.7	49
1	143419	18.8	50
2	9503	1.5	1
2	14488	2	2
2	19958	2.5	3
2	20457	2.6	4
2	24943	3.1	4
2	25442	3.2	5
2	29428	3.7	6
2	29927	3.8	6
2	34413	4.3	7
2	34912	4.4	8
2	38898	4.9	9
2	39392	5	10
2	43878	5.5	11
2	44377	5.6	12
2	48363	6.1	13
2	48862	6.2	14
2	53348	6.7	15
2	53847	6.8	16
2	57833	7.3	17
2	58332	7.4	18
2	62818	7.9	19
2	63312	8	20
2	67298	8.5	21
2	67797	8.6	22
2	72283	9.1	23
2	72782	9.2	24
2	76768	9.7	25
2	77267	9.8	26
2	81781	10.3	27
2	82334	10.4	28
2	86327	10.9	29
2	86842	11	30
2	91320	11.5	31
2	91871	11.6	32
2	97656	12.3	33
2	98585	12.4	34
2	103947	13.1	35
2	104484	13.2	36
2	109784	13.9	37
2	110287	14	38
2	115838	14.7	39
2	116550	14.8	40
2	121550	15.5	41
2	122068	15.6	42
2	126951	16.3	43
2	127488	16.4	44
2	132550	17.1	45
2	133216	17.2	46
2	137881	17.9	47
2	138354	18	48
2	142990	18.7	49
2	143420	18.8	50
2	147001	19.4	51
2	148020	19.5	52
2	150923	20	53
2	151547	20.1	54
2	154482	20.6	55
2	154611	20.6	56
2	157856	21.1	57
2	158245	21.2	58
2	160704	21.6	58
2	161613	21.8	59
2	163560	22.1	60
2	165231	22.4	60
2	166340	22.6	61
2	168449	23	62
2	169331	23.1	63
2	171946	23.6	64
2	172036	23.6	65
2	174624	24.1	66
2	174989	24.2	67
2	177225	24.6	67
2	178331	24.8	68
2	180082	25.1	69
2	181292	25.4	69
2	182567	25.6	70
2	184504	26	71
2	185008	26.1	72
2	187334	26.6	73
2	187419	26.6	74
2	190007	27.1	75
2	190327	27.2	76
2	192311	27.6	76
2	192998	27.8	77
2	194499	28.1	78
2	195853	28.4	78
2	196698	28.6	79
2	198367	29	80
2	199440	29.2	81
2	201815	29.8	82
2	201885	29.8	83
2	204519	30.4	84
2	206798	31	85
2	209239	31.6	86
2	210717	32	87
2	211309	32.2	87
2	212713	32.6	88
2	213494	32.8	89
2	214815	33.2	89
2	215323	33.4	90
2	216547	33.8	91
2	217206	34	92
2	218270	34.4	93
2	218673	34.6	94
2	219590	35	95
2	220072	35.2	96
2	220805	35.6	97
2	221087	35.8	98
2	221697	36.2	99
2	222015	36.4	100
2	222504	36.8	100
3	9504	1.5	1
3	14489	2	2
3	19959	2.5	3
3	20458	2.6	4
3	24944	3.1	4
3	25443	3.2	5
3	29429	3.7	6
3	29928	3.8	6
3	34414	4.3	7
3	34913	4.4	8
3	38899	4.9	9
3	39393	5	10
3	43879	5.5	11
3	44378	5.6	12
3	48364	6.1	13
3	48863	6.2	14
3	53349	6.7	15
3	53848	6.8	16
3	57834	7.3	17
3	58333	7.4	18
3	62819	7.9	19
3	63313	8	20
3	67299	8.5	21
3	67798	8.6	22
3	72284	9.1	23
3	72783	9.2	24
3	76769	9.7	25
3	77268	9.8	26
3	81782	10.3	27
3	82335	10.4	28
3	86328	10.9	29
3	86843	11	30
3	91321	11.5	31
3	91872	11.6	32
3	97657	12.3	33
3	98586	12.4	34
3	104485	13.2	35
3	104505	13.2	36
3	108796	13.8	36
3	108799	13.8	37
4	9505	1.5	1
4	14490	2	2
4	19960	2.5	3
4	20459	2.6	4
4	24945	3.1	4
4	25444	3.2	5
4	29430	3.7	6
4	29929	3.8	6
4	34415	4.3	7
4	34914	4.4	8
4	38900	4.9	9
4	39394	5	10
4	43880	5.5	11
4	44379	5.6	12
4	48365	6.1	13
4	48864	6.2	14
4	53350	6.7	15
4	53849	6.8	16
4	57835	7.3	17
4	58334	7.4	18
4	62820	7.9	19
4	63314	8	20
4	67300	8.5	21
4	67799	8.6	22
4	72285	9.1	23
4	72784	9.2	24
4	76770	9.7	25
4	77269	9.8	26
4	81783	10.3	27
4	82336	10.4	28
4	86329	10.9	29
4	86844	11	30
4	91322	11.5	31
4	91873	11.6	32
4	97658	12.3	33
4	98587	12.4	34
4	103948	13.1	35
4	108333	13.7	36
4	110657	14	36
4	112974	14.3	37
4	114851	14.6	37
4	116603	14.8	38
4	119308	15.2	39
4	119787	15.3	40
4	123338	15.8	41
4	123341	15.8	42
4	127204	16.3	43
4	127746	16.4	44
4	130406	16.8	44
4	131627	17	45
4	133791	17.3	46
4	135816	17.6	46
4	136999	17.8	47
4	139556	18.2	48
4	140432	18.3	49
4	143618	18.8	50
4	143643	18.8	51
4	146637	19.3	52
4	147133	19.4	53
4	149648	19.8	53
4	151053	20	54
4	153051	20.3	55
4	154581	20.6	55
4	155981	20.8	56
4	158337	21.2	57
4	158830	21.3	58
4	161697	21.8	59
4	161746	21.8	60
4	164874	22.3	61
4	165291	22.4	62
4	167633	22.8	62
4	168508	23	63
4	170287	23.3	64
4	171992	23.6	64
4	172949	23.8	65
4	175033	24.2	66
4	175847	24.3	67
4	178370	24.8	68
4	178439	24.8	69
4	180938	25.3	70
4	181324	25.4	71
4	183442	25.8	71
4	184534	26	72
4	186157	26.3	73
4	187354	26.6	73
4	188531	26.8	74
4	190344	27.2	75
4	190801	27.3	76
4	193011	27.8	77
4	193088	27.8	78
4	195535	28.3	79
4	195858	28.4	80
4	197720	28.8	80
4	198372	29	81
4	200169	29.4	82
4	201126	29.6	82
4	202863	30	83
4	203504	30.2	84
4	205240	30.6	85
4	206100	30.8	86
4	207695	31.2	87
4	209171	31.6	88
4	209875	31.8	89
4	212042	32.4	90
4	212119	32.4	91
4	214047	33	92
4	214734	33.2	93
4	216041	33.6	93
4	217157	34	94
4	217667	34.2	95
4	219170	34.8	95
4	219216	34.8	96
4	220376	35.4	97
4	220764	35.6	98
4	221449	36	98
4	221990	36.4	99
4	222220	36.6	100
4	222880	37.2	100
5	9506	1.5	1
5	14491	2	2
5	19961	2.5	3
5	20460	2.6	4
5	24946	3.1	4
5	25445	3.2	5
5	29431	3.7	6
5	29930	3.8	6
5	34416	4.3	7
5	34915	4.4	8
5	38901	4.9	9
5	39395	5	10
5	43881	5.5	11
5	44380	5.6	12
5	48366	6.1	13
5	48865	6.2	14
5	53351	6.7	15
5	53850	6.8	16
5	57836	7.3	17
5	58335	7.4	18
5	62821	7.9	19
5	63315	8	20
5	67301	8.5	21
5	67800	8.6	22
5	72286	9.1	23
5	72785	9.2	24
5	76771	9.7	25
5	77270	9.8	26
5	81784	10.3	27
5	82337	10.4	28
5	86330	10.9	29
5	86845	11	30
5	91323	11.5	31
5	91874	11.6	32
5	97659	12.3	33
5	98588	12.4	34
5	103949	13.1	35
5	104486	13.2	36
5	109785	13.9	37
5	110288	14	38
5	115839	14.7	39
5	116551	14.8	40
5	121551	15.5	41
5	122069	15.6	42
5	126021	16.2	42
5	127489	16.4	43
5	131395	17	44
5	131639	17	45
5	133217	17.2	45
5	135827	17.6	46
5	136931	17.8	46
5	138355	18	47
5	139567	18.2	47
5	142022	18.6	47
5	143421	18.8	48
5	143627	18.8	49
5	146973	19.4	49
5	147141	19.4	50
5	148589	19.6	50
5	151061	20	50
5	152078	20.2	51
5	153430	20.4	51
5	154588	20.6	51
5	156846	21	52
5	158187	21.2	53
5	158344	21.2	54
5	161580	21.8	54
5	161703	21.8	55
5	162979	22	55
5	165296	22.4	55
5	166237	22.6	56
5	167489	22.8	56
5	168513	23	56
5	170614	23.4	57
5	171899	23.6	58
5	171997	23.6	59
5	174944	24.2	59
5	175038	24.2	60
5	176198	24.4	60
5	178375	24.8	60
5	179214	25	61
5	180370	25.2	61
5	181329	25.4	61
5	183296	25.8	62
5	184457	26	63
5	184539	26	64
5	187297	26.6	64
5	187359	26.6	65
5	188417	26.8	65
5	190349	27.2	65
5	191086	27.4	66
5	192172	27.6	66
5	193015	27.8	66
5	194743	28.2	67
5	195811	28.4	68
5	195862	28.4	69
6	9507	1.5	1
6	14492	2	2
6	19962	2.5	3
6	20461	2.6	4
6	24947	3.1	4
6	25446	3.2	5
6	29432	3.7	6
6	29931	3.8	6
6	34417	4.3	7
6	34916	4.4	8
6	38902	4.9	9
6	39396	5	10
6	43882	5.5	11
6	44381	5.6	12
6	48367	6.1	13
6	48866	6.2	14
6	53352	6.7	15
6	53851	6.8	16
6	57837	7.3	17
6	58336	7.4	18
6	62822	7.9	19
6	63316	8	20
6	67302	8.5	21
6	67801	8.6	22
6	72287	9.1	23
6	72786	9.2	24
6	76772	9.7	25
6	77271	9.8	26
6	81785	10.3	27
6	82338	10.4	28
6	86331	10.9	29
6	86846	11	30
6	91324	11.5	31
6	91875	11.6	32
6	97660	12.3	33